+ 0.1 0 4 tcp 40 ------- 1 0.0 3.0 0 0
- 0.1 0 4 tcp 40 ------- 1 0.0 3.0 0 0
r 0.11032 0 4 tcp 40 ------- 1 0.0 3.0 0 0
+ 0.11032 4 3 tcp 40 ------- 1 0.0 3.0 0 0
- 0.11032 4 3 tcp 40 ------- 1 0.0 3.0 0 0
r 0.12064 4 3 tcp 40 ------- 1 0.0 3.0 0 0
+ 0.12064 3 4 ack 40 ------- 1 3.0 0.0 0 1
- 0.12064 3 4 ack 40 ------- 1 3.0 0.0 0 1
r 0.13096 3 4 ack 40 ------- 1 3.0 0.0 0 1
+ 0.13096 4 0 ack 40 ------- 1 3.0 0.0 0 1
- 0.13096 4 0 ack 40 ------- 1 3.0 0.0 0 1
r 0.14128 4 0 ack 40 ------- 1 3.0 0.0 0 1
+ 0.14128 0 4 tcp 1040 ------- 1 0.0 3.0 1 2
- 0.14128 0 4 tcp 1040 ------- 1 0.0 3.0 1 2
+ 0.14128 0 4 tcp 1040 ------- 1 0.0 3.0 2 3
- 0.1496 0 4 tcp 1040 ------- 1 0.0 3.0 2 3
r 0.1596 0 4 tcp 1040 ------- 1 0.0 3.0 1 2
+ 0.1596 4 3 tcp 1040 ------- 1 0.0 3.0 1 2
- 0.1596 4 3 tcp 1040 ------- 1 0.0 3.0 1 2
r 0.16792 0 4 tcp 1040 ------- 1 0.0 3.0 2 3
+ 0.16792 4 3 tcp 1040 ------- 1 0.0 3.0 2 3
- 0.16792 4 3 tcp 1040 ------- 1 0.0 3.0 2 3
r 0.17792 4 3 tcp 1040 ------- 1 0.0 3.0 1 2
+ 0.17792 3 4 ack 40 ------- 1 3.0 0.0 1 4
- 0.17792 3 4 ack 40 ------- 1 3.0 0.0 1 4
r 0.18624 4 3 tcp 1040 ------- 1 0.0 3.0 2 3
+ 0.18624 3 4 ack 40 ------- 1 3.0 0.0 2 5
- 0.18624 3 4 ack 40 ------- 1 3.0 0.0 2 5
r 0.18824 3 4 ack 40 ------- 1 3.0 0.0 1 4
+ 0.18824 4 0 ack 40 ------- 1 3.0 0.0 1 4
- 0.18824 4 0 ack 40 ------- 1 3.0 0.0 1 4
r 0.19656 3 4 ack 40 ------- 1 3.0 0.0 2 5
+ 0.19656 4 0 ack 40 ------- 1 3.0 0.0 2 5
- 0.19656 4 0 ack 40 ------- 1 3.0 0.0 2 5
r 0.19856 4 0 ack 40 ------- 1 3.0 0.0 1 4
+ 0.19856 0 4 tcp 1040 ------- 1 0.0 3.0 3 6
- 0.19856 0 4 tcp 1040 ------- 1 0.0 3.0 3 6
+ 0.19856 0 4 tcp 1040 ------- 1 0.0 3.0 4 7
r 0.20688 4 0 ack 40 ------- 1 3.0 0.0 2 5
+ 0.20688 0 4 tcp 1040 ------- 1 0.0 3.0 5 8
+ 0.20688 0 4 tcp 1040 ------- 1 0.0 3.0 6 9
- 0.20688 0 4 tcp 1040 ------- 1 0.0 3.0 4 7
- 0.2152 0 4 tcp 1040 ------- 1 0.0 3.0 5 8
r 0.21688 0 4 tcp 1040 ------- 1 0.0 3.0 3 6
+ 0.21688 4 3 tcp 1040 ------- 1 0.0 3.0 3 6
- 0.21688 4 3 tcp 1040 ------- 1 0.0 3.0 3 6
- 0.22352 0 4 tcp 1040 ------- 1 0.0 3.0 6 9
r 0.2252 0 4 tcp 1040 ------- 1 0.0 3.0 4 7
+ 0.2252 4 3 tcp 1040 ------- 1 0.0 3.0 4 7
- 0.2252 4 3 tcp 1040 ------- 1 0.0 3.0 4 7
r 0.23352 0 4 tcp 1040 ------- 1 0.0 3.0 5 8
+ 0.23352 4 3 tcp 1040 ------- 1 0.0 3.0 5 8
- 0.23352 4 3 tcp 1040 ------- 1 0.0 3.0 5 8
r 0.2352 4 3 tcp 1040 ------- 1 0.0 3.0 3 6
+ 0.2352 3 4 ack 40 ------- 1 3.0 0.0 3 10
- 0.2352 3 4 ack 40 ------- 1 3.0 0.0 3 10
r 0.24184 0 4 tcp 1040 ------- 1 0.0 3.0 6 9
+ 0.24184 4 3 tcp 1040 ------- 1 0.0 3.0 6 9
- 0.24184 4 3 tcp 1040 ------- 1 0.0 3.0 6 9
r 0.24352 4 3 tcp 1040 ------- 1 0.0 3.0 4 7
+ 0.24352 3 4 ack 40 ------- 1 3.0 0.0 4 11
- 0.24352 3 4 ack 40 ------- 1 3.0 0.0 4 11
r 0.24552 3 4 ack 40 ------- 1 3.0 0.0 3 10
+ 0.24552 4 0 ack 40 ------- 1 3.0 0.0 3 10
- 0.24552 4 0 ack 40 ------- 1 3.0 0.0 3 10
r 0.25184 4 3 tcp 1040 ------- 1 0.0 3.0 5 8
+ 0.25184 3 4 ack 40 ------- 1 3.0 0.0 5 12
- 0.25184 3 4 ack 40 ------- 1 3.0 0.0 5 12
r 0.25384 3 4 ack 40 ------- 1 3.0 0.0 4 11
+ 0.25384 4 0 ack 40 ------- 1 3.0 0.0 4 11
- 0.25384 4 0 ack 40 ------- 1 3.0 0.0 4 11
r 0.25584 4 0 ack 40 ------- 1 3.0 0.0 3 10
+ 0.25584 0 4 tcp 1040 ------- 1 0.0 3.0 7 13
- 0.25584 0 4 tcp 1040 ------- 1 0.0 3.0 7 13
+ 0.25584 0 4 tcp 1040 ------- 1 0.0 3.0 8 14
r 0.26016 4 3 tcp 1040 ------- 1 0.0 3.0 6 9
+ 0.26016 3 4 ack 40 ------- 1 3.0 0.0 6 15
- 0.26016 3 4 ack 40 ------- 1 3.0 0.0 6 15
r 0.26216 3 4 ack 40 ------- 1 3.0 0.0 5 12
+ 0.26216 4 0 ack 40 ------- 1 3.0 0.0 5 12
- 0.26216 4 0 ack 40 ------- 1 3.0 0.0 5 12
r 0.26416 4 0 ack 40 ------- 1 3.0 0.0 4 11
+ 0.26416 0 4 tcp 1040 ------- 1 0.0 3.0 9 16
+ 0.26416 0 4 tcp 1040 ------- 1 0.0 3.0 10 17
- 0.26416 0 4 tcp 1040 ------- 1 0.0 3.0 8 14
r 0.27048 3 4 ack 40 ------- 1 3.0 0.0 6 15
+ 0.27048 4 0 ack 40 ------- 1 3.0 0.0 6 15
- 0.27048 4 0 ack 40 ------- 1 3.0 0.0 6 15
r 0.27248 4 0 ack 40 ------- 1 3.0 0.0 5 12
+ 0.27248 0 4 tcp 1040 ------- 1 0.0 3.0 11 18
+ 0.27248 0 4 tcp 1040 ------- 1 0.0 3.0 12 19
- 0.27248 0 4 tcp 1040 ------- 1 0.0 3.0 9 16
r 0.27416 0 4 tcp 1040 ------- 1 0.0 3.0 7 13
+ 0.27416 4 3 tcp 1040 ------- 1 0.0 3.0 7 13
- 0.27416 4 3 tcp 1040 ------- 1 0.0 3.0 7 13
r 0.2808 4 0 ack 40 ------- 1 3.0 0.0 6 15
+ 0.2808 0 4 tcp 1040 ------- 1 0.0 3.0 13 20
+ 0.2808 0 4 tcp 1040 ------- 1 0.0 3.0 14 21
- 0.2808 0 4 tcp 1040 ------- 1 0.0 3.0 10 17
r 0.28248 0 4 tcp 1040 ------- 1 0.0 3.0 8 14
+ 0.28248 4 3 tcp 1040 ------- 1 0.0 3.0 8 14
- 0.28248 4 3 tcp 1040 ------- 1 0.0 3.0 8 14
- 0.28912 0 4 tcp 1040 ------- 1 0.0 3.0 11 18
r 0.2908 0 4 tcp 1040 ------- 1 0.0 3.0 9 16
+ 0.2908 4 3 tcp 1040 ------- 1 0.0 3.0 9 16
- 0.2908 4 3 tcp 1040 ------- 1 0.0 3.0 9 16
r 0.29248 4 3 tcp 1040 ------- 1 0.0 3.0 7 13
+ 0.29248 3 4 ack 40 ------- 1 3.0 0.0 7 22
- 0.29248 3 4 ack 40 ------- 1 3.0 0.0 7 22
- 0.29744 0 4 tcp 1040 ------- 1 0.0 3.0 12 19
r 0.29912 0 4 tcp 1040 ------- 1 0.0 3.0 10 17
+ 0.29912 4 3 tcp 1040 ------- 1 0.0 3.0 10 17
- 0.29912 4 3 tcp 1040 ------- 1 0.0 3.0 10 17
+ 0.3 1 4 cbr 500 ------- 2 1.0 2.0 0 23
- 0.3 1 4 cbr 500 ------- 2 1.0 2.0 0 23
r 0.3008 4 3 tcp 1040 ------- 1 0.0 3.0 8 14
+ 0.3008 3 4 ack 40 ------- 1 3.0 0.0 8 24
- 0.3008 3 4 ack 40 ------- 1 3.0 0.0 8 24
r 0.3028 3 4 ack 40 ------- 1 3.0 0.0 7 22
+ 0.3028 4 0 ack 40 ------- 1 3.0 0.0 7 22
- 0.3028 4 0 ack 40 ------- 1 3.0 0.0 7 22
+ 0.305 1 4 cbr 500 ------- 2 1.0 2.0 1 25
- 0.305 1 4 cbr 500 ------- 2 1.0 2.0 1 25
- 0.30576 0 4 tcp 1040 ------- 1 0.0 3.0 13 20
r 0.30744 0 4 tcp 1040 ------- 1 0.0 3.0 11 18
+ 0.30744 4 3 tcp 1040 ------- 1 0.0 3.0 11 18
- 0.30744 4 3 tcp 1040 ------- 1 0.0 3.0 11 18
r 0.30912 4 3 tcp 1040 ------- 1 0.0 3.0 9 16
+ 0.30912 3 4 ack 40 ------- 1 3.0 0.0 9 26
- 0.30912 3 4 ack 40 ------- 1 3.0 0.0 9 26
+ 0.31 1 4 cbr 500 ------- 2 1.0 2.0 2 27
- 0.31 1 4 cbr 500 ------- 2 1.0 2.0 2 27
r 0.31112 3 4 ack 40 ------- 1 3.0 0.0 8 24
+ 0.31112 4 0 ack 40 ------- 1 3.0 0.0 8 24
- 0.31112 4 0 ack 40 ------- 1 3.0 0.0 8 24
r 0.31312 4 0 ack 40 ------- 1 3.0 0.0 7 22
+ 0.31312 0 4 tcp 1040 ------- 1 0.0 3.0 15 28
+ 0.31312 0 4 tcp 1040 ------- 1 0.0 3.0 16 29
r 0.314 1 4 cbr 500 ------- 2 1.0 2.0 0 23
+ 0.314 4 2 cbr 500 ------- 2 1.0 2.0 0 23
- 0.314 4 2 cbr 500 ------- 2 1.0 2.0 0 23
- 0.31408 0 4 tcp 1040 ------- 1 0.0 3.0 14 21
+ 0.315 1 4 cbr 500 ------- 2 1.0 2.0 3 30
- 0.315 1 4 cbr 500 ------- 2 1.0 2.0 3 30
r 0.31576 0 4 tcp 1040 ------- 1 0.0 3.0 12 19
+ 0.31576 4 3 tcp 1040 ------- 1 0.0 3.0 12 19
- 0.31576 4 3 tcp 1040 ------- 1 0.0 3.0 12 19
r 0.31744 4 3 tcp 1040 ------- 1 0.0 3.0 10 17
+ 0.31744 3 4 ack 40 ------- 1 3.0 0.0 10 31
- 0.31744 3 4 ack 40 ------- 1 3.0 0.0 10 31
r 0.319 1 4 cbr 500 ------- 2 1.0 2.0 1 25
+ 0.319 4 2 cbr 500 ------- 2 1.0 2.0 1 25
- 0.319 4 2 cbr 500 ------- 2 1.0 2.0 1 25
r 0.31944 3 4 ack 40 ------- 1 3.0 0.0 9 26
+ 0.31944 4 0 ack 40 ------- 1 3.0 0.0 9 26
- 0.31944 4 0 ack 40 ------- 1 3.0 0.0 9 26
+ 0.32 1 4 cbr 500 ------- 2 1.0 2.0 4 32
- 0.32 1 4 cbr 500 ------- 2 1.0 2.0 4 32
r 0.32144 4 0 ack 40 ------- 1 3.0 0.0 8 24
+ 0.32144 0 4 tcp 1040 ------- 1 0.0 3.0 17 33
+ 0.32144 0 4 tcp 1040 ------- 1 0.0 3.0 18 34
- 0.3224 0 4 tcp 1040 ------- 1 0.0 3.0 15 28
r 0.324 1 4 cbr 500 ------- 2 1.0 2.0 2 27
+ 0.324 4 2 cbr 500 ------- 2 1.0 2.0 2 27
- 0.324 4 2 cbr 500 ------- 2 1.0 2.0 2 27
r 0.32408 0 4 tcp 1040 ------- 1 0.0 3.0 13 20
+ 0.32408 4 3 tcp 1040 ------- 1 0.0 3.0 13 20
- 0.32408 4 3 tcp 1040 ------- 1 0.0 3.0 13 20
+ 0.325 1 4 cbr 500 ------- 2 1.0 2.0 5 35
- 0.325 1 4 cbr 500 ------- 2 1.0 2.0 5 35
r 0.32576 4 3 tcp 1040 ------- 1 0.0 3.0 11 18
+ 0.32576 3 4 ack 40 ------- 1 3.0 0.0 11 36
- 0.32576 3 4 ack 40 ------- 1 3.0 0.0 11 36
r 0.32776 3 4 ack 40 ------- 1 3.0 0.0 10 31
+ 0.32776 4 0 ack 40 ------- 1 3.0 0.0 10 31
- 0.32776 4 0 ack 40 ------- 1 3.0 0.0 10 31
r 0.328 4 2 cbr 500 ------- 2 1.0 2.0 0 23
r 0.329 1 4 cbr 500 ------- 2 1.0 2.0 3 30
+ 0.329 4 2 cbr 500 ------- 2 1.0 2.0 3 30
- 0.329 4 2 cbr 500 ------- 2 1.0 2.0 3 30
r 0.32976 4 0 ack 40 ------- 1 3.0 0.0 9 26
+ 0.32976 0 4 tcp 1040 ------- 1 0.0 3.0 19 37
+ 0.32976 0 4 tcp 1040 ------- 1 0.0 3.0 20 38
+ 0.33 1 4 cbr 500 ------- 2 1.0 2.0 6 39
- 0.33 1 4 cbr 500 ------- 2 1.0 2.0 6 39
- 0.33072 0 4 tcp 1040 ------- 1 0.0 3.0 16 29
r 0.3324 0 4 tcp 1040 ------- 1 0.0 3.0 14 21
+ 0.3324 4 3 tcp 1040 ------- 1 0.0 3.0 14 21
- 0.3324 4 3 tcp 1040 ------- 1 0.0 3.0 14 21
r 0.333 4 2 cbr 500 ------- 2 1.0 2.0 1 25
r 0.334 1 4 cbr 500 ------- 2 1.0 2.0 4 32
+ 0.334 4 2 cbr 500 ------- 2 1.0 2.0 4 32
- 0.334 4 2 cbr 500 ------- 2 1.0 2.0 4 32
r 0.33408 4 3 tcp 1040 ------- 1 0.0 3.0 12 19
+ 0.33408 3 4 ack 40 ------- 1 3.0 0.0 12 40
- 0.33408 3 4 ack 40 ------- 1 3.0 0.0 12 40
+ 0.335 1 4 cbr 500 ------- 2 1.0 2.0 7 41
- 0.335 1 4 cbr 500 ------- 2 1.0 2.0 7 41
r 0.33608 3 4 ack 40 ------- 1 3.0 0.0 11 36
+ 0.33608 4 0 ack 40 ------- 1 3.0 0.0 11 36
- 0.33608 4 0 ack 40 ------- 1 3.0 0.0 11 36
r 0.338 4 2 cbr 500 ------- 2 1.0 2.0 2 27
r 0.33808 4 0 ack 40 ------- 1 3.0 0.0 10 31
+ 0.33808 0 4 tcp 1040 ------- 1 0.0 3.0 21 42
+ 0.33808 0 4 tcp 1040 ------- 1 0.0 3.0 22 43
r 0.339 1 4 cbr 500 ------- 2 1.0 2.0 5 35
+ 0.339 4 2 cbr 500 ------- 2 1.0 2.0 5 35
- 0.339 4 2 cbr 500 ------- 2 1.0 2.0 5 35
- 0.33904 0 4 tcp 1040 ------- 1 0.0 3.0 17 33
+ 0.34 1 4 cbr 500 ------- 2 1.0 2.0 8 44
- 0.34 1 4 cbr 500 ------- 2 1.0 2.0 8 44
r 0.34072 0 4 tcp 1040 ------- 1 0.0 3.0 15 28
+ 0.34072 4 3 tcp 1040 ------- 1 0.0 3.0 15 28
- 0.34072 4 3 tcp 1040 ------- 1 0.0 3.0 15 28
r 0.3424 4 3 tcp 1040 ------- 1 0.0 3.0 13 20
+ 0.3424 3 4 ack 40 ------- 1 3.0 0.0 13 45
- 0.3424 3 4 ack 40 ------- 1 3.0 0.0 13 45
r 0.343 4 2 cbr 500 ------- 2 1.0 2.0 3 30
r 0.344 1 4 cbr 500 ------- 2 1.0 2.0 6 39
+ 0.344 4 2 cbr 500 ------- 2 1.0 2.0 6 39
- 0.344 4 2 cbr 500 ------- 2 1.0 2.0 6 39
r 0.3444 3 4 ack 40 ------- 1 3.0 0.0 12 40
+ 0.3444 4 0 ack 40 ------- 1 3.0 0.0 12 40
- 0.3444 4 0 ack 40 ------- 1 3.0 0.0 12 40
+ 0.345 1 4 cbr 500 ------- 2 1.0 2.0 9 46
- 0.345 1 4 cbr 500 ------- 2 1.0 2.0 9 46
r 0.3464 4 0 ack 40 ------- 1 3.0 0.0 11 36
+ 0.3464 0 4 tcp 1040 ------- 1 0.0 3.0 23 47
+ 0.3464 0 4 tcp 1040 ------- 1 0.0 3.0 24 48
- 0.34736 0 4 tcp 1040 ------- 1 0.0 3.0 18 34
r 0.348 4 2 cbr 500 ------- 2 1.0 2.0 4 32
r 0.349 1 4 cbr 500 ------- 2 1.0 2.0 7 41
+ 0.349 4 2 cbr 500 ------- 2 1.0 2.0 7 41
- 0.349 4 2 cbr 500 ------- 2 1.0 2.0 7 41
r 0.34904 0 4 tcp 1040 ------- 1 0.0 3.0 16 29
+ 0.34904 4 3 tcp 1040 ------- 1 0.0 3.0 16 29
- 0.34904 4 3 tcp 1040 ------- 1 0.0 3.0 16 29
+ 0.35 1 4 cbr 500 ------- 2 1.0 2.0 10 49
- 0.35 1 4 cbr 500 ------- 2 1.0 2.0 10 49
r 0.35072 4 3 tcp 1040 ------- 1 0.0 3.0 14 21
+ 0.35072 3 4 ack 40 ------- 1 3.0 0.0 14 50
- 0.35072 3 4 ack 40 ------- 1 3.0 0.0 14 50
r 0.35272 3 4 ack 40 ------- 1 3.0 0.0 13 45
+ 0.35272 4 0 ack 40 ------- 1 3.0 0.0 13 45
- 0.35272 4 0 ack 40 ------- 1 3.0 0.0 13 45
r 0.353 4 2 cbr 500 ------- 2 1.0 2.0 5 35
r 0.354 1 4 cbr 500 ------- 2 1.0 2.0 8 44
+ 0.354 4 2 cbr 500 ------- 2 1.0 2.0 8 44
- 0.354 4 2 cbr 500 ------- 2 1.0 2.0 8 44
r 0.35472 4 0 ack 40 ------- 1 3.0 0.0 12 40
+ 0.35472 0 4 tcp 1040 ------- 1 0.0 3.0 25 51
+ 0.35472 0 4 tcp 1040 ------- 1 0.0 3.0 26 52
+ 0.355 1 4 cbr 500 ------- 2 1.0 2.0 11 53
- 0.355 1 4 cbr 500 ------- 2 1.0 2.0 11 53
- 0.35568 0 4 tcp 1040 ------- 1 0.0 3.0 19 37
r 0.35736 0 4 tcp 1040 ------- 1 0.0 3.0 17 33
+ 0.35736 4 3 tcp 1040 ------- 1 0.0 3.0 17 33
- 0.35736 4 3 tcp 1040 ------- 1 0.0 3.0 17 33
r 0.358 4 2 cbr 500 ------- 2 1.0 2.0 6 39
r 0.359 1 4 cbr 500 ------- 2 1.0 2.0 9 46
+ 0.359 4 2 cbr 500 ------- 2 1.0 2.0 9 46
- 0.359 4 2 cbr 500 ------- 2 1.0 2.0 9 46
r 0.35904 4 3 tcp 1040 ------- 1 0.0 3.0 15 28
+ 0.35904 3 4 ack 40 ------- 1 3.0 0.0 15 54
- 0.35904 3 4 ack 40 ------- 1 3.0 0.0 15 54
+ 0.36 1 4 cbr 500 ------- 2 1.0 2.0 12 55
- 0.36 1 4 cbr 500 ------- 2 1.0 2.0 12 55
r 0.36104 3 4 ack 40 ------- 1 3.0 0.0 14 50
+ 0.36104 4 0 ack 40 ------- 1 3.0 0.0 14 50
- 0.36104 4 0 ack 40 ------- 1 3.0 0.0 14 50
r 0.363 4 2 cbr 500 ------- 2 1.0 2.0 7 41
r 0.36304 4 0 ack 40 ------- 1 3.0 0.0 13 45
+ 0.36304 0 4 tcp 1040 ------- 1 0.0 3.0 27 56
+ 0.36304 0 4 tcp 1040 ------- 1 0.0 3.0 28 57
- 0.364 0 4 tcp 1040 ------- 1 0.0 3.0 20 38
r 0.364 1 4 cbr 500 ------- 2 1.0 2.0 10 49
+ 0.364 4 2 cbr 500 ------- 2 1.0 2.0 10 49
- 0.364 4 2 cbr 500 ------- 2 1.0 2.0 10 49
+ 0.365 1 4 cbr 500 ------- 2 1.0 2.0 13 58
- 0.365 1 4 cbr 500 ------- 2 1.0 2.0 13 58
r 0.36568 0 4 tcp 1040 ------- 1 0.0 3.0 18 34
+ 0.36568 4 3 tcp 1040 ------- 1 0.0 3.0 18 34
- 0.36568 4 3 tcp 1040 ------- 1 0.0 3.0 18 34
r 0.36736 4 3 tcp 1040 ------- 1 0.0 3.0 16 29
+ 0.36736 3 4 ack 40 ------- 1 3.0 0.0 16 59
- 0.36736 3 4 ack 40 ------- 1 3.0 0.0 16 59
r 0.368 4 2 cbr 500 ------- 2 1.0 2.0 8 44
r 0.369 1 4 cbr 500 ------- 2 1.0 2.0 11 53
+ 0.369 4 2 cbr 500 ------- 2 1.0 2.0 11 53
- 0.369 4 2 cbr 500 ------- 2 1.0 2.0 11 53
r 0.36936 3 4 ack 40 ------- 1 3.0 0.0 15 54
+ 0.36936 4 0 ack 40 ------- 1 3.0 0.0 15 54
- 0.36936 4 0 ack 40 ------- 1 3.0 0.0 15 54
+ 0.37 1 4 cbr 500 ------- 2 1.0 2.0 14 60
- 0.37 1 4 cbr 500 ------- 2 1.0 2.0 14 60
r 0.37136 4 0 ack 40 ------- 1 3.0 0.0 14 50
+ 0.37136 0 4 tcp 1040 ------- 1 0.0 3.0 29 61
+ 0.37136 0 4 tcp 1040 ------- 1 0.0 3.0 30 62
- 0.37232 0 4 tcp 1040 ------- 1 0.0 3.0 21 42
r 0.373 4 2 cbr 500 ------- 2 1.0 2.0 9 46
r 0.374 0 4 tcp 1040 ------- 1 0.0 3.0 19 37
+ 0.374 4 3 tcp 1040 ------- 1 0.0 3.0 19 37
- 0.374 4 3 tcp 1040 ------- 1 0.0 3.0 19 37
r 0.374 1 4 cbr 500 ------- 2 1.0 2.0 12 55
+ 0.374 4 2 cbr 500 ------- 2 1.0 2.0 12 55
- 0.374 4 2 cbr 500 ------- 2 1.0 2.0 12 55
+ 0.375 1 4 cbr 500 ------- 2 1.0 2.0 15 63
- 0.375 1 4 cbr 500 ------- 2 1.0 2.0 15 63
r 0.37568 4 3 tcp 1040 ------- 1 0.0 3.0 17 33
+ 0.37568 3 4 ack 40 ------- 1 3.0 0.0 17 64
- 0.37568 3 4 ack 40 ------- 1 3.0 0.0 17 64
r 0.37768 3 4 ack 40 ------- 1 3.0 0.0 16 59
+ 0.37768 4 0 ack 40 ------- 1 3.0 0.0 16 59
- 0.37768 4 0 ack 40 ------- 1 3.0 0.0 16 59
r 0.378 4 2 cbr 500 ------- 2 1.0 2.0 10 49
r 0.379 1 4 cbr 500 ------- 2 1.0 2.0 13 58
+ 0.379 4 2 cbr 500 ------- 2 1.0 2.0 13 58
- 0.379 4 2 cbr 500 ------- 2 1.0 2.0 13 58
r 0.37968 4 0 ack 40 ------- 1 3.0 0.0 15 54
+ 0.37968 0 4 tcp 1040 ------- 1 0.0 3.0 31 65
+ 0.37968 0 4 tcp 1040 ------- 1 0.0 3.0 32 66
+ 0.38 1 4 cbr 500 ------- 2 1.0 2.0 16 67
- 0.38 1 4 cbr 500 ------- 2 1.0 2.0 16 67
- 0.38064 0 4 tcp 1040 ------- 1 0.0 3.0 22 43
r 0.38232 0 4 tcp 1040 ------- 1 0.0 3.0 20 38
+ 0.38232 4 3 tcp 1040 ------- 1 0.0 3.0 20 38
- 0.38232 4 3 tcp 1040 ------- 1 0.0 3.0 20 38
r 0.383 4 2 cbr 500 ------- 2 1.0 2.0 11 53
r 0.384 4 3 tcp 1040 ------- 1 0.0 3.0 18 34
+ 0.384 3 4 ack 40 ------- 1 3.0 0.0 18 68
- 0.384 3 4 ack 40 ------- 1 3.0 0.0 18 68
r 0.384 1 4 cbr 500 ------- 2 1.0 2.0 14 60
+ 0.384 4 2 cbr 500 ------- 2 1.0 2.0 14 60
- 0.384 4 2 cbr 500 ------- 2 1.0 2.0 14 60
+ 0.385 1 4 cbr 500 ------- 2 1.0 2.0 17 69
- 0.385 1 4 cbr 500 ------- 2 1.0 2.0 17 69
r 0.386 3 4 ack 40 ------- 1 3.0 0.0 17 64
+ 0.386 4 0 ack 40 ------- 1 3.0 0.0 17 64
- 0.386 4 0 ack 40 ------- 1 3.0 0.0 17 64
r 0.388 4 0 ack 40 ------- 1 3.0 0.0 16 59
+ 0.388 0 4 tcp 1040 ------- 1 0.0 3.0 33 70
+ 0.388 0 4 tcp 1040 ------- 1 0.0 3.0 34 71
r 0.388 4 2 cbr 500 ------- 2 1.0 2.0 12 55
- 0.38896 0 4 tcp 1040 ------- 1 0.0 3.0 23 47
r 0.389 1 4 cbr 500 ------- 2 1.0 2.0 15 63
+ 0.389 4 2 cbr 500 ------- 2 1.0 2.0 15 63
- 0.389 4 2 cbr 500 ------- 2 1.0 2.0 15 63
+ 0.39 1 4 cbr 500 ------- 2 1.0 2.0 18 72
- 0.39 1 4 cbr 500 ------- 2 1.0 2.0 18 72
r 0.39064 0 4 tcp 1040 ------- 1 0.0 3.0 21 42
+ 0.39064 4 3 tcp 1040 ------- 1 0.0 3.0 21 42
- 0.39064 4 3 tcp 1040 ------- 1 0.0 3.0 21 42
r 0.39232 4 3 tcp 1040 ------- 1 0.0 3.0 19 37
+ 0.39232 3 4 ack 40 ------- 1 3.0 0.0 19 73
- 0.39232 3 4 ack 40 ------- 1 3.0 0.0 19 73
r 0.393 4 2 cbr 500 ------- 2 1.0 2.0 13 58
r 0.394 1 4 cbr 500 ------- 2 1.0 2.0 16 67
+ 0.394 4 2 cbr 500 ------- 2 1.0 2.0 16 67
- 0.394 4 2 cbr 500 ------- 2 1.0 2.0 16 67
r 0.39432 3 4 ack 40 ------- 1 3.0 0.0 18 68
+ 0.39432 4 0 ack 40 ------- 1 3.0 0.0 18 68
- 0.39432 4 0 ack 40 ------- 1 3.0 0.0 18 68
+ 0.395 1 4 cbr 500 ------- 2 1.0 2.0 19 74
- 0.395 1 4 cbr 500 ------- 2 1.0 2.0 19 74
r 0.39632 4 0 ack 40 ------- 1 3.0 0.0 17 64
+ 0.39632 0 4 tcp 1040 ------- 1 0.0 3.0 35 75
+ 0.39632 0 4 tcp 1040 ------- 1 0.0 3.0 36 76
- 0.39728 0 4 tcp 1040 ------- 1 0.0 3.0 24 48
r 0.398 4 2 cbr 500 ------- 2 1.0 2.0 14 60
r 0.39896 0 4 tcp 1040 ------- 1 0.0 3.0 22 43
+ 0.39896 4 3 tcp 1040 ------- 1 0.0 3.0 22 43
- 0.39896 4 3 tcp 1040 ------- 1 0.0 3.0 22 43
r 0.399 1 4 cbr 500 ------- 2 1.0 2.0 17 69
+ 0.399 4 2 cbr 500 ------- 2 1.0 2.0 17 69
- 0.399 4 2 cbr 500 ------- 2 1.0 2.0 17 69
+ 0.4 1 4 cbr 500 ------- 2 1.0 2.0 20 77
- 0.4 1 4 cbr 500 ------- 2 1.0 2.0 20 77
r 0.40064 4 3 tcp 1040 ------- 1 0.0 3.0 20 38
+ 0.40064 3 4 ack 40 ------- 1 3.0 0.0 20 78
- 0.40064 3 4 ack 40 ------- 1 3.0 0.0 20 78
r 0.40264 3 4 ack 40 ------- 1 3.0 0.0 19 73
+ 0.40264 4 0 ack 40 ------- 1 3.0 0.0 19 73
- 0.40264 4 0 ack 40 ------- 1 3.0 0.0 19 73
r 0.403 4 2 cbr 500 ------- 2 1.0 2.0 15 63
r 0.404 1 4 cbr 500 ------- 2 1.0 2.0 18 72
+ 0.404 4 2 cbr 500 ------- 2 1.0 2.0 18 72
- 0.404 4 2 cbr 500 ------- 2 1.0 2.0 18 72
r 0.40464 4 0 ack 40 ------- 1 3.0 0.0 18 68
+ 0.40464 0 4 tcp 1040 ------- 1 0.0 3.0 37 79
+ 0.40464 0 4 tcp 1040 ------- 1 0.0 3.0 38 80
+ 0.405 1 4 cbr 500 ------- 2 1.0 2.0 21 81
- 0.405 1 4 cbr 500 ------- 2 1.0 2.0 21 81
- 0.4056 0 4 tcp 1040 ------- 1 0.0 3.0 25 51
r 0.40728 0 4 tcp 1040 ------- 1 0.0 3.0 23 47
+ 0.40728 4 3 tcp 1040 ------- 1 0.0 3.0 23 47
- 0.40728 4 3 tcp 1040 ------- 1 0.0 3.0 23 47
r 0.408 4 2 cbr 500 ------- 2 1.0 2.0 16 67
r 0.40896 4 3 tcp 1040 ------- 1 0.0 3.0 21 42
+ 0.40896 3 4 ack 40 ------- 1 3.0 0.0 21 82
- 0.40896 3 4 ack 40 ------- 1 3.0 0.0 21 82
r 0.409 1 4 cbr 500 ------- 2 1.0 2.0 19 74
+ 0.409 4 2 cbr 500 ------- 2 1.0 2.0 19 74
- 0.409 4 2 cbr 500 ------- 2 1.0 2.0 19 74
+ 0.41 1 4 cbr 500 ------- 2 1.0 2.0 22 83
- 0.41 1 4 cbr 500 ------- 2 1.0 2.0 22 83
r 0.41096 3 4 ack 40 ------- 1 3.0 0.0 20 78
+ 0.41096 4 0 ack 40 ------- 1 3.0 0.0 20 78
- 0.41096 4 0 ack 40 ------- 1 3.0 0.0 20 78
r 0.41296 4 0 ack 40 ------- 1 3.0 0.0 19 73
+ 0.41296 0 4 tcp 1040 ------- 1 0.0 3.0 39 84
r 0.413 4 2 cbr 500 ------- 2 1.0 2.0 17 69
- 0.41392 0 4 tcp 1040 ------- 1 0.0 3.0 26 52
r 0.414 1 4 cbr 500 ------- 2 1.0 2.0 20 77
+ 0.414 4 2 cbr 500 ------- 2 1.0 2.0 20 77
- 0.414 4 2 cbr 500 ------- 2 1.0 2.0 20 77
+ 0.415 1 4 cbr 500 ------- 2 1.0 2.0 23 85
- 0.415 1 4 cbr 500 ------- 2 1.0 2.0 23 85
r 0.4156 0 4 tcp 1040 ------- 1 0.0 3.0 24 48
+ 0.4156 4 3 tcp 1040 ------- 1 0.0 3.0 24 48
- 0.4156 4 3 tcp 1040 ------- 1 0.0 3.0 24 48
r 0.41728 4 3 tcp 1040 ------- 1 0.0 3.0 22 43
+ 0.41728 3 4 ack 40 ------- 1 3.0 0.0 22 86
- 0.41728 3 4 ack 40 ------- 1 3.0 0.0 22 86
r 0.418 4 2 cbr 500 ------- 2 1.0 2.0 18 72
r 0.419 1 4 cbr 500 ------- 2 1.0 2.0 21 81
+ 0.419 4 2 cbr 500 ------- 2 1.0 2.0 21 81
- 0.419 4 2 cbr 500 ------- 2 1.0 2.0 21 81
r 0.41928 3 4 ack 40 ------- 1 3.0 0.0 21 82
+ 0.41928 4 0 ack 40 ------- 1 3.0 0.0 21 82
- 0.41928 4 0 ack 40 ------- 1 3.0 0.0 21 82
+ 0.42 1 4 cbr 500 ------- 2 1.0 2.0 24 87
- 0.42 1 4 cbr 500 ------- 2 1.0 2.0 24 87
r 0.42128 4 0 ack 40 ------- 1 3.0 0.0 20 78
+ 0.42128 0 4 tcp 1040 ------- 1 0.0 3.0 40 88
- 0.42224 0 4 tcp 1040 ------- 1 0.0 3.0 27 56
r 0.423 4 2 cbr 500 ------- 2 1.0 2.0 19 74
r 0.42392 0 4 tcp 1040 ------- 1 0.0 3.0 25 51
+ 0.42392 4 3 tcp 1040 ------- 1 0.0 3.0 25 51
- 0.42392 4 3 tcp 1040 ------- 1 0.0 3.0 25 51
r 0.424 1 4 cbr 500 ------- 2 1.0 2.0 22 83
+ 0.424 4 2 cbr 500 ------- 2 1.0 2.0 22 83
- 0.424 4 2 cbr 500 ------- 2 1.0 2.0 22 83
+ 0.425 1 4 cbr 500 ------- 2 1.0 2.0 25 89
- 0.425 1 4 cbr 500 ------- 2 1.0 2.0 25 89
r 0.4256 4 3 tcp 1040 ------- 1 0.0 3.0 23 47
+ 0.4256 3 4 ack 40 ------- 1 3.0 0.0 23 90
- 0.4256 3 4 ack 40 ------- 1 3.0 0.0 23 90
r 0.4276 3 4 ack 40 ------- 1 3.0 0.0 22 86
+ 0.4276 4 0 ack 40 ------- 1 3.0 0.0 22 86
- 0.4276 4 0 ack 40 ------- 1 3.0 0.0 22 86
r 0.428 4 2 cbr 500 ------- 2 1.0 2.0 20 77
r 0.429 1 4 cbr 500 ------- 2 1.0 2.0 23 85
+ 0.429 4 2 cbr 500 ------- 2 1.0 2.0 23 85
- 0.429 4 2 cbr 500 ------- 2 1.0 2.0 23 85
r 0.4296 4 0 ack 40 ------- 1 3.0 0.0 21 82
+ 0.4296 0 4 tcp 1040 ------- 1 0.0 3.0 41 91
+ 0.43 1 4 cbr 500 ------- 2 1.0 2.0 26 92
- 0.43 1 4 cbr 500 ------- 2 1.0 2.0 26 92
- 0.43056 0 4 tcp 1040 ------- 1 0.0 3.0 28 57
r 0.43224 0 4 tcp 1040 ------- 1 0.0 3.0 26 52
+ 0.43224 4 3 tcp 1040 ------- 1 0.0 3.0 26 52
- 0.43224 4 3 tcp 1040 ------- 1 0.0 3.0 26 52
r 0.433 4 2 cbr 500 ------- 2 1.0 2.0 21 81
r 0.43392 4 3 tcp 1040 ------- 1 0.0 3.0 24 48
+ 0.43392 3 4 ack 40 ------- 1 3.0 0.0 24 93
- 0.43392 3 4 ack 40 ------- 1 3.0 0.0 24 93
r 0.434 1 4 cbr 500 ------- 2 1.0 2.0 24 87
+ 0.434 4 2 cbr 500 ------- 2 1.0 2.0 24 87
- 0.434 4 2 cbr 500 ------- 2 1.0 2.0 24 87
+ 0.435 1 4 cbr 500 ------- 2 1.0 2.0 27 94
- 0.435 1 4 cbr 500 ------- 2 1.0 2.0 27 94
r 0.43592 3 4 ack 40 ------- 1 3.0 0.0 23 90
+ 0.43592 4 0 ack 40 ------- 1 3.0 0.0 23 90
- 0.43592 4 0 ack 40 ------- 1 3.0 0.0 23 90
r 0.43792 4 0 ack 40 ------- 1 3.0 0.0 22 86
+ 0.43792 0 4 tcp 1040 ------- 1 0.0 3.0 42 95
r 0.438 4 2 cbr 500 ------- 2 1.0 2.0 22 83
- 0.43888 0 4 tcp 1040 ------- 1 0.0 3.0 29 61
r 0.439 1 4 cbr 500 ------- 2 1.0 2.0 25 89
+ 0.439 4 2 cbr 500 ------- 2 1.0 2.0 25 89
- 0.439 4 2 cbr 500 ------- 2 1.0 2.0 25 89
+ 0.44 1 4 cbr 500 ------- 2 1.0 2.0 28 96
- 0.44 1 4 cbr 500 ------- 2 1.0 2.0 28 96
r 0.44056 0 4 tcp 1040 ------- 1 0.0 3.0 27 56
+ 0.44056 4 3 tcp 1040 ------- 1 0.0 3.0 27 56
- 0.44056 4 3 tcp 1040 ------- 1 0.0 3.0 27 56
r 0.44224 4 3 tcp 1040 ------- 1 0.0 3.0 25 51
+ 0.44224 3 4 ack 40 ------- 1 3.0 0.0 25 97
- 0.44224 3 4 ack 40 ------- 1 3.0 0.0 25 97
r 0.443 4 2 cbr 500 ------- 2 1.0 2.0 23 85
r 0.444 1 4 cbr 500 ------- 2 1.0 2.0 26 92
+ 0.444 4 2 cbr 500 ------- 2 1.0 2.0 26 92
- 0.444 4 2 cbr 500 ------- 2 1.0 2.0 26 92
r 0.44424 3 4 ack 40 ------- 1 3.0 0.0 24 93
+ 0.44424 4 0 ack 40 ------- 1 3.0 0.0 24 93
- 0.44424 4 0 ack 40 ------- 1 3.0 0.0 24 93
+ 0.445 1 4 cbr 500 ------- 2 1.0 2.0 29 98
- 0.445 1 4 cbr 500 ------- 2 1.0 2.0 29 98
r 0.44624 4 0 ack 40 ------- 1 3.0 0.0 23 90
+ 0.44624 0 4 tcp 1040 ------- 1 0.0 3.0 43 99
- 0.4472 0 4 tcp 1040 ------- 1 0.0 3.0 30 62
r 0.448 4 2 cbr 500 ------- 2 1.0 2.0 24 87
r 0.44888 0 4 tcp 1040 ------- 1 0.0 3.0 28 57
+ 0.44888 4 3 tcp 1040 ------- 1 0.0 3.0 28 57
- 0.44888 4 3 tcp 1040 ------- 1 0.0 3.0 28 57
r 0.449 1 4 cbr 500 ------- 2 1.0 2.0 27 94
+ 0.449 4 2 cbr 500 ------- 2 1.0 2.0 27 94
- 0.449 4 2 cbr 500 ------- 2 1.0 2.0 27 94
+ 0.45 1 4 cbr 500 ------- 2 1.0 2.0 30 100
- 0.45 1 4 cbr 500 ------- 2 1.0 2.0 30 100
r 0.45056 4 3 tcp 1040 ------- 1 0.0 3.0 26 52
+ 0.45056 3 4 ack 40 ------- 1 3.0 0.0 26 101
- 0.45056 3 4 ack 40 ------- 1 3.0 0.0 26 101
r 0.45256 3 4 ack 40 ------- 1 3.0 0.0 25 97
+ 0.45256 4 0 ack 40 ------- 1 3.0 0.0 25 97
- 0.45256 4 0 ack 40 ------- 1 3.0 0.0 25 97
r 0.453 4 2 cbr 500 ------- 2 1.0 2.0 25 89
r 0.454 1 4 cbr 500 ------- 2 1.0 2.0 28 96
+ 0.454 4 2 cbr 500 ------- 2 1.0 2.0 28 96
- 0.454 4 2 cbr 500 ------- 2 1.0 2.0 28 96
r 0.45456 4 0 ack 40 ------- 1 3.0 0.0 24 93
+ 0.45456 0 4 tcp 1040 ------- 1 0.0 3.0 44 102
+ 0.455 1 4 cbr 500 ------- 2 1.0 2.0 31 103
- 0.455 1 4 cbr 500 ------- 2 1.0 2.0 31 103
- 0.45552 0 4 tcp 1040 ------- 1 0.0 3.0 31 65
r 0.4572 0 4 tcp 1040 ------- 1 0.0 3.0 29 61
+ 0.4572 4 3 tcp 1040 ------- 1 0.0 3.0 29 61
- 0.4572 4 3 tcp 1040 ------- 1 0.0 3.0 29 61
r 0.458 4 2 cbr 500 ------- 2 1.0 2.0 26 92
r 0.45888 4 3 tcp 1040 ------- 1 0.0 3.0 27 56
+ 0.45888 3 4 ack 40 ------- 1 3.0 0.0 27 104
- 0.45888 3 4 ack 40 ------- 1 3.0 0.0 27 104
r 0.459 1 4 cbr 500 ------- 2 1.0 2.0 29 98
+ 0.459 4 2 cbr 500 ------- 2 1.0 2.0 29 98
- 0.459 4 2 cbr 500 ------- 2 1.0 2.0 29 98
+ 0.46 1 4 cbr 500 ------- 2 1.0 2.0 32 105
- 0.46 1 4 cbr 500 ------- 2 1.0 2.0 32 105
r 0.46088 3 4 ack 40 ------- 1 3.0 0.0 26 101
+ 0.46088 4 0 ack 40 ------- 1 3.0 0.0 26 101
- 0.46088 4 0 ack 40 ------- 1 3.0 0.0 26 101
r 0.46288 4 0 ack 40 ------- 1 3.0 0.0 25 97
+ 0.46288 0 4 tcp 1040 ------- 1 0.0 3.0 45 106
r 0.463 4 2 cbr 500 ------- 2 1.0 2.0 27 94
- 0.46384 0 4 tcp 1040 ------- 1 0.0 3.0 32 66
r 0.464 1 4 cbr 500 ------- 2 1.0 2.0 30 100
+ 0.464 4 2 cbr 500 ------- 2 1.0 2.0 30 100
- 0.464 4 2 cbr 500 ------- 2 1.0 2.0 30 100
+ 0.465 1 4 cbr 500 ------- 2 1.0 2.0 33 107
- 0.465 1 4 cbr 500 ------- 2 1.0 2.0 33 107
r 0.46552 0 4 tcp 1040 ------- 1 0.0 3.0 30 62
+ 0.46552 4 3 tcp 1040 ------- 1 0.0 3.0 30 62
- 0.46552 4 3 tcp 1040 ------- 1 0.0 3.0 30 62
r 0.4672 4 3 tcp 1040 ------- 1 0.0 3.0 28 57
+ 0.4672 3 4 ack 40 ------- 1 3.0 0.0 28 108
- 0.4672 3 4 ack 40 ------- 1 3.0 0.0 28 108
r 0.468 4 2 cbr 500 ------- 2 1.0 2.0 28 96
r 0.469 1 4 cbr 500 ------- 2 1.0 2.0 31 103
+ 0.469 4 2 cbr 500 ------- 2 1.0 2.0 31 103
- 0.469 4 2 cbr 500 ------- 2 1.0 2.0 31 103
r 0.4692 3 4 ack 40 ------- 1 3.0 0.0 27 104
+ 0.4692 4 0 ack 40 ------- 1 3.0 0.0 27 104
- 0.4692 4 0 ack 40 ------- 1 3.0 0.0 27 104
+ 0.47 1 4 cbr 500 ------- 2 1.0 2.0 34 109
- 0.47 1 4 cbr 500 ------- 2 1.0 2.0 34 109
r 0.4712 4 0 ack 40 ------- 1 3.0 0.0 26 101
+ 0.4712 0 4 tcp 1040 ------- 1 0.0 3.0 46 110
- 0.47216 0 4 tcp 1040 ------- 1 0.0 3.0 33 70
r 0.473 4 2 cbr 500 ------- 2 1.0 2.0 29 98
r 0.47384 0 4 tcp 1040 ------- 1 0.0 3.0 31 65
+ 0.47384 4 3 tcp 1040 ------- 1 0.0 3.0 31 65
- 0.47384 4 3 tcp 1040 ------- 1 0.0 3.0 31 65
r 0.474 1 4 cbr 500 ------- 2 1.0 2.0 32 105
+ 0.474 4 2 cbr 500 ------- 2 1.0 2.0 32 105
- 0.474 4 2 cbr 500 ------- 2 1.0 2.0 32 105
+ 0.475 1 4 cbr 500 ------- 2 1.0 2.0 35 111
- 0.475 1 4 cbr 500 ------- 2 1.0 2.0 35 111
r 0.47552 4 3 tcp 1040 ------- 1 0.0 3.0 29 61
+ 0.47552 3 4 ack 40 ------- 1 3.0 0.0 29 112
- 0.47552 3 4 ack 40 ------- 1 3.0 0.0 29 112
r 0.47752 3 4 ack 40 ------- 1 3.0 0.0 28 108
+ 0.47752 4 0 ack 40 ------- 1 3.0 0.0 28 108
- 0.47752 4 0 ack 40 ------- 1 3.0 0.0 28 108
r 0.478 4 2 cbr 500 ------- 2 1.0 2.0 30 100
r 0.479 1 4 cbr 500 ------- 2 1.0 2.0 33 107
+ 0.479 4 2 cbr 500 ------- 2 1.0 2.0 33 107
- 0.479 4 2 cbr 500 ------- 2 1.0 2.0 33 107
r 0.47952 4 0 ack 40 ------- 1 3.0 0.0 27 104
+ 0.47952 0 4 tcp 1040 ------- 1 0.0 3.0 47 113
+ 0.48 1 4 cbr 500 ------- 2 1.0 2.0 36 114
- 0.48 1 4 cbr 500 ------- 2 1.0 2.0 36 114
- 0.48048 0 4 tcp 1040 ------- 1 0.0 3.0 34 71
r 0.48216 0 4 tcp 1040 ------- 1 0.0 3.0 32 66
+ 0.48216 4 3 tcp 1040 ------- 1 0.0 3.0 32 66
- 0.48216 4 3 tcp 1040 ------- 1 0.0 3.0 32 66
r 0.483 4 2 cbr 500 ------- 2 1.0 2.0 31 103
r 0.48384 4 3 tcp 1040 ------- 1 0.0 3.0 30 62
+ 0.48384 3 4 ack 40 ------- 1 3.0 0.0 30 115
- 0.48384 3 4 ack 40 ------- 1 3.0 0.0 30 115
r 0.484 1 4 cbr 500 ------- 2 1.0 2.0 34 109
+ 0.484 4 2 cbr 500 ------- 2 1.0 2.0 34 109
- 0.484 4 2 cbr 500 ------- 2 1.0 2.0 34 109
+ 0.485 1 4 cbr 500 ------- 2 1.0 2.0 37 116
- 0.485 1 4 cbr 500 ------- 2 1.0 2.0 37 116
r 0.48584 3 4 ack 40 ------- 1 3.0 0.0 29 112
+ 0.48584 4 0 ack 40 ------- 1 3.0 0.0 29 112
- 0.48584 4 0 ack 40 ------- 1 3.0 0.0 29 112
r 0.48784 4 0 ack 40 ------- 1 3.0 0.0 28 108
+ 0.48784 0 4 tcp 1040 ------- 1 0.0 3.0 48 117
r 0.488 4 2 cbr 500 ------- 2 1.0 2.0 32 105
- 0.4888 0 4 tcp 1040 ------- 1 0.0 3.0 35 75
r 0.489 1 4 cbr 500 ------- 2 1.0 2.0 35 111
+ 0.489 4 2 cbr 500 ------- 2 1.0 2.0 35 111
- 0.489 4 2 cbr 500 ------- 2 1.0 2.0 35 111
+ 0.49 1 4 cbr 500 ------- 2 1.0 2.0 38 118
- 0.49 1 4 cbr 500 ------- 2 1.0 2.0 38 118
r 0.49048 0 4 tcp 1040 ------- 1 0.0 3.0 33 70
+ 0.49048 4 3 tcp 1040 ------- 1 0.0 3.0 33 70
- 0.49048 4 3 tcp 1040 ------- 1 0.0 3.0 33 70
r 0.49216 4 3 tcp 1040 ------- 1 0.0 3.0 31 65
+ 0.49216 3 4 ack 40 ------- 1 3.0 0.0 31 119
- 0.49216 3 4 ack 40 ------- 1 3.0 0.0 31 119
r 0.493 4 2 cbr 500 ------- 2 1.0 2.0 33 107
r 0.494 1 4 cbr 500 ------- 2 1.0 2.0 36 114
+ 0.494 4 2 cbr 500 ------- 2 1.0 2.0 36 114
- 0.494 4 2 cbr 500 ------- 2 1.0 2.0 36 114
r 0.49416 3 4 ack 40 ------- 1 3.0 0.0 30 115
+ 0.49416 4 0 ack 40 ------- 1 3.0 0.0 30 115
- 0.49416 4 0 ack 40 ------- 1 3.0 0.0 30 115
+ 0.495 1 4 cbr 500 ------- 2 1.0 2.0 39 120
- 0.495 1 4 cbr 500 ------- 2 1.0 2.0 39 120
r 0.49616 4 0 ack 40 ------- 1 3.0 0.0 29 112
+ 0.49616 0 4 tcp 1040 ------- 1 0.0 3.0 49 121
- 0.49712 0 4 tcp 1040 ------- 1 0.0 3.0 36 76
r 0.498 4 2 cbr 500 ------- 2 1.0 2.0 34 109
r 0.4988 0 4 tcp 1040 ------- 1 0.0 3.0 34 71
+ 0.4988 4 3 tcp 1040 ------- 1 0.0 3.0 34 71
- 0.4988 4 3 tcp 1040 ------- 1 0.0 3.0 34 71
r 0.499 1 4 cbr 500 ------- 2 1.0 2.0 37 116
+ 0.499 4 2 cbr 500 ------- 2 1.0 2.0 37 116
- 0.499 4 2 cbr 500 ------- 2 1.0 2.0 37 116
+ 0.5 1 4 cbr 500 ------- 2 1.0 2.0 40 122
- 0.5 1 4 cbr 500 ------- 2 1.0 2.0 40 122
r 0.50048 4 3 tcp 1040 ------- 1 0.0 3.0 32 66
+ 0.50048 3 4 ack 40 ------- 1 3.0 0.0 32 123
- 0.50048 3 4 ack 40 ------- 1 3.0 0.0 32 123
r 0.50248 3 4 ack 40 ------- 1 3.0 0.0 31 119
+ 0.50248 4 0 ack 40 ------- 1 3.0 0.0 31 119
- 0.50248 4 0 ack 40 ------- 1 3.0 0.0 31 119
r 0.503 4 2 cbr 500 ------- 2 1.0 2.0 35 111
r 0.504 1 4 cbr 500 ------- 2 1.0 2.0 38 118
+ 0.504 4 2 cbr 500 ------- 2 1.0 2.0 38 118
- 0.504 4 2 cbr 500 ------- 2 1.0 2.0 38 118
r 0.50448 4 0 ack 40 ------- 1 3.0 0.0 30 115
+ 0.50448 0 4 tcp 1040 ------- 1 0.0 3.0 50 124
+ 0.505 1 4 cbr 500 ------- 2 1.0 2.0 41 125
- 0.505 1 4 cbr 500 ------- 2 1.0 2.0 41 125
- 0.50544 0 4 tcp 1040 ------- 1 0.0 3.0 37 79
r 0.50712 0 4 tcp 1040 ------- 1 0.0 3.0 35 75
+ 0.50712 4 3 tcp 1040 ------- 1 0.0 3.0 35 75
- 0.50712 4 3 tcp 1040 ------- 1 0.0 3.0 35 75
r 0.508 4 2 cbr 500 ------- 2 1.0 2.0 36 114
r 0.5088 4 3 tcp 1040 ------- 1 0.0 3.0 33 70
+ 0.5088 3 4 ack 40 ------- 1 3.0 0.0 33 126
- 0.5088 3 4 ack 40 ------- 1 3.0 0.0 33 126
r 0.509 1 4 cbr 500 ------- 2 1.0 2.0 39 120
+ 0.509 4 2 cbr 500 ------- 2 1.0 2.0 39 120
- 0.509 4 2 cbr 500 ------- 2 1.0 2.0 39 120
+ 0.51 1 4 cbr 500 ------- 2 1.0 2.0 42 127