n -t 0 -s 0 -S DLABEL -l "source/tcp0" -L ""
n -t 0 -s 1 -S DLABEL -l "source/udp0" -L ""
n -t 0 -s 2 -S DLABEL -l "destination/null0" -L ""
n -t 0 -s 3 -S DLABEL -l "destnation/sink0" -L ""
V -t * -v 1.0a5 -a 0
A -t * -n 1 -p 0 -o 0x7fffffff -c 30 -a 1
A -t * -h 1 -m 1073741823 -s 0
c -t * -i 1 -n red
c -t * -i 2 -n blue
n -t * -a 4 -s 4 -S UP -v circle -c black -i black
n -t * -a 0 -s 0 -S UP -v square -c red -i red
n -t * -a 1 -s 1 -S UP -v hexagon -c red -i red
n -t * -a 2 -s 2 -S UP -v hexagon -c green -i green
n -t * -a 3 -s 3 -S UP -v square -c green -i green
l -t * -s 0 -d 4 -S UP -r 1000000 -D 0.01 -c black
l -t * -s 1 -d 4 -S UP -r 1000000 -D 0.01 -c black
l -t * -s 2 -d 4 -S UP -r 1000000 -D 0.01 -c black
l -t * -s 3 -d 4 -S UP -r 1000000 -D 0.01 -c black
+ -t 0.1 -s 0 -d 4 -p tcp -e 40 -c 1 -i 0 -a 1 -x {0.0 3.0 0 ------- null}
- -t 0.1 -s 0 -d 4 -p tcp -e 40 -c 1 -i 0 -a 1 -x {0.0 3.0 0 ------- null}
h -t 0.1 -s 0 -d 4 -p tcp -e 40 -c 1 -i 0 -a 1 -x {0.0 3.0 -1 ------- null}
r -t 0.11032 -s 0 -d 4 -p tcp -e 40 -c 1 -i 0 -a 1 -x {0.0 3.0 0 ------- null}
+ -t 0.11032 -s 4 -d 3 -p tcp -e 40 -c 1 -i 0 -a 1 -x {0.0 3.0 0 ------- null}
- -t 0.11032 -s 4 -d 3 -p tcp -e 40 -c 1 -i 0 -a 1 -x {0.0 3.0 0 ------- null}
h -t 0.11032 -s 4 -d 3 -p tcp -e 40 -c 1 -i 0 -a 1 -x {0.0 3.0 -1 ------- null}
r -t 0.12064 -s 4 -d 3 -p tcp -e 40 -c 1 -i 0 -a 1 -x {0.0 3.0 0 ------- null}
+ -t 0.12064 -s 3 -d 4 -p ack -e 40 -c 1 -i 1 -a 1 -x {3.0 0.0 0 ------- null}
- -t 0.12064 -s 3 -d 4 -p ack -e 40 -c 1 -i 1 -a 1 -x {3.0 0.0 0 ------- null}
h -t 0.12064 -s 3 -d 4 -p ack -e 40 -c 1 -i 1 -a 1 -x {3.0 0.0 -1 ------- null}
r -t 0.13096 -s 3 -d 4 -p ack -e 40 -c 1 -i 1 -a 1 -x {3.0 0.0 0 ------- null}
+ -t 0.13096 -s 4 -d 0 -p ack -e 40 -c 1 -i 1 -a 1 -x {3.0 0.0 0 ------- null}
- -t 0.13096 -s 4 -d 0 -p ack -e 40 -c 1 -i 1 -a 1 -x {3.0 0.0 0 ------- null}
h -t 0.13096 -s 4 -d 0 -p ack -e 40 -c 1 -i 1 -a 1 -x {3.0 0.0 -1 ------- null}
r -t 0.14128 -s 4 -d 0 -p ack -e 40 -c 1 -i 1 -a 1 -x {3.0 0.0 0 ------- null}
+ -t 0.14128 -s 0 -d 4 -p tcp -e 1040 -c 1 -i 2 -a 1 -x {0.0 3.0 1 ------- null}
- -t 0.14128 -s 0 -d 4 -p tcp -e 1040 -c 1 -i 2 -a 1 -x {0.0 3.0 1 ------- null}
h -t 0.14128 -s 0 -d 4 -p tcp -e 1040 -c 1 -i 2 -a 1 -x {0.0 3.0 -1 ------- null}
+ -t 0.14128 -s 0 -d 4 -p tcp -e 1040 -c 1 -i 3 -a 1 -x {0.0 3.0 2 ------- null}
- -t 0.1496 -s 0 -d 4 -p tcp -e 1040 -c 1 -i 3 -a 1 -x {0.0 3.0 2 ------- null}
h -t 0.1496 -s 0 -d 4 -p tcp -e 1040 -c 1 -i 3 -a 1 -x {0.0 3.0 -1 ------- null}
r -t 0.1596 -s 0 -d 4 -p tcp -e 1040 -c 1 -i 2 -a 1 -x {0.0 3.0 1 ------- null}
+ -t 0.1596 -s 4 -d 3 -p tcp -e 1040 -c 1 -i 2 -a 1 -x {0.0 3.0 1 ------- null}
- -t 0.1596 -s 4 -d 3 -p tcp -e 1040 -c 1 -i 2 -a 1 -x {0.0 3.0 1 ------- null}
h -t 0.1596 -s 4 -d 3 -p tcp -e 1040 -c 1 -i 2 -a 1 -x {0.0 3.0 -1 ------- null}
r -t 0.16792 -s 0 -d 4 -p tcp -e 1040 -c 1 -i 3 -a 1 -x {0.0 3.0 2 ------- null}
+ -t 0.16792 -s 4 -d 3 -p tcp -e 1040 -c 1 -i 3 -a 1 -x {0.0 3.0 2 ------- null}
- -t 0.16792 -s 4 -d 3 -p tcp -e 1040 -c 1 -i 3 -a 1 -x {0.0 3.0 2 ------- null}
h -t 0.16792 -s 4 -d 3 -p tcp -e 1040 -c 1 -i 3 -a 1 -x {0.0 3.0 -1 ------- null}
r -t 0.17792 -s 4 -d 3 -p tcp -e 1040 -c 1 -i 2 -a 1 -x {0.0 3.0 1 ------- null}
+ -t 0.17792 -s 3 -d 4 -p ack -e 40 -c 1 -i 4 -a 1 -x {3.0 0.0 1 ------- null}
- -t 0.17792 -s 3 -d 4 -p ack -e 40 -c 1 -i 4 -a 1 -x {3.0 0.0 1 ------- null}
h -t 0.17792 -s 3 -d 4 -p ack -e 40 -c 1 -i 4 -a 1 -x {3.0 0.0 -1 ------- null}
r -t 0.18624 -s 4 -d 3 -p tcp -e 1040 -c 1 -i 3 -a 1 -x {0.0 3.0 2 ------- null}
+ -t 0.18624 -s 3 -d 4 -p ack -e 40 -c 1 -i 5 -a 1 -x {3.0 0.0 2 ------- null}
- -t 0.18624 -s 3 -d 4 -p ack -e 40 -c 1 -i 5 -a 1 -x {3.0 0.0 2 ------- null}
h -t 0.18624 -s 3 -d 4 -p ack -e 40 -c 1 -i 5 -a 1 -x {3.0 0.0 -1 ------- null}
r -t 0.18824 -s 3 -d 4 -p ack -e 40 -c 1 -i 4 -a 1 -x {3.0 0.0 1 ------- null}
+ -t 0.18824 -s 4 -d 0 -p ack -e 40 -c 1 -i 4 -a 1 -x {3.0 0.0 1 ------- null}
- -t 0.18824 -s 4 -d 0 -p ack -e 40 -c 1 -i 4 -a 1 -x {3.0 0.0 1 ------- null}
h -t 0.18824 -s 4 -d 0 -p ack -e 40 -c 1 -i 4 -a 1 -x {3.0 0.0 -1 ------- null}
r -t 0.19656 -s 3 -d 4 -p ack -e 40 -c 1 -i 5 -a 1 -x {3.0 0.0 2 ------- null}
+ -t 0.19656 -s 4 -d 0 -p ack -e 40 -c 1 -i 5 -a 1 -x {3.0 0.0 2 ------- null}
- -t 0.19656 -s 4 -d 0 -p ack -e 40 -c 1 -i 5 -a 1 -x {3.0 0.0 2 ------- null}
h -t 0.19656 -s 4 -d 0 -p ack -e 40 -c 1 -i 5 -a 1 -x {3.0 0.0 -1 ------- null}
r -t 0.19856 -s 4 -d 0 -p ack -e 40 -c 1 -i 4 -a 1 -x {3.0 0.0 1 ------- null}
+ -t 0.19856 -s 0 -d 4 -p tcp -e 1040 -c 1 -i 6 -a 1 -x {0.0 3.0 3 ------- null}
- -t 0.19856 -s 0 -d 4 -p tcp -e 1040 -c 1 -i 6 -a 1 -x {0.0 3.0 3 ------- null}
h -t 0.19856 -s 0 -d 4 -p tcp -e 1040 -c 1 -i 6 -a 1 -x {0.0 3.0 -1 ------- null}
+ -t 0.19856 -s 0 -d 4 -p tcp -e 1040 -c 1 -i 7 -a 1 -x {0.0 3.0 4 ------- null}
r -t 0.20688 -s 4 -d 0 -p ack -e 40 -c 1 -i 5 -a 1 -x {3.0 0.0 2 ------- null}
+ -t 0.20688 -s 0 -d 4 -p tcp -e 1040 -c 1 -i 8 -a 1 -x {0.0 3.0 5 ------- null}
+ -t 0.20688 -s 0 -d 4 -p tcp -e 1040 -c 1 -i 9 -a 1 -x {0.0 3.0 6 ------- null}
- -t 0.20688 -s 0 -d 4 -p tcp -e 1040 -c 1 -i 7 -a 1 -x {0.0 3.0 4 ------- null}
h -t 0.20688 -s 0 -d 4 -p tcp -e 1040 -c 1 -i 7 -a 1 -x {0.0 3.0 -1 ------- null}
- -t 0.2152 -s 0 -d 4 -p tcp -e 1040 -c 1 -i 8 -a 1 -x {0.0 3.0 5 ------- null}
h -t 0.2152 -s 0 -d 4 -p tcp -e 1040 -c 1 -i 8 -a 1 -x {0.0 3.0 -1 ------- null}
r -t 0.21688 -s 0 -d 4 -p tcp -e 1040 -c 1 -i 6 -a 1 -x {0.0 3.0 3 ------- null}
+ -t 0.21688 -s 4 -d 3 -p tcp -e 1040 -c 1 -i 6 -a 1 -x {0.0 3.0 3 ------- null}
- -t 0.21688 -s 4 -d 3 -p tcp -e 1040 -c 1 -i 6 -a 1 -x {0.0 3.0 3 ------- null}
h -t 0.21688 -s 4 -d 3 -p tcp -e 1040 -c 1 -i 6 -a 1 -x {0.0 3.0 -1 ------- null}
- -t 0.22352 -s 0 -d 4 -p tcp -e 1040 -c 1 -i 9 -a 1 -x {0.0 3.0 6 ------- null}
h -t 0.22352 -s 0 -d 4 -p tcp -e 1040 -c 1 -i 9 -a 1 -x {0.0 3.0 -1 ------- null}
r -t 0.2252 -s 0 -d 4 -p tcp -e 1040 -c 1 -i 7 -a 1 -x {0.0 3.0 4 ------- null}
+ -t 0.2252 -s 4 -d 3 -p tcp -e 1040 -c 1 -i 7 -a 1 -x {0.0 3.0 4 ------- null}
- -t 0.2252 -s 4 -d 3 -p tcp -e 1040 -c 1 -i 7 -a 1 -x {0.0 3.0 4 ------- null}
h -t 0.2252 -s 4 -d 3 -p tcp -e 1040 -c 1 -i 7 -a 1 -x {0.0 3.0 -1 ------- null}
r -t 0.23352 -s 0 -d 4 -p tcp -e 1040 -c 1 -i 8 -a 1 -x {0.0 3.0 5 ------- null}
+ -t 0.23352 -s 4 -d 3 -p tcp -e 1040 -c 1 -i 8 -a 1 -x {0.0 3.0 5 ------- null}
- -t 0.23352 -s 4 -d 3 -p tcp -e 1040 -c 1 -i 8 -a 1 -x {0.0 3.0 5 ------- null}
h -t 0.23352 -s 4 -d 3 -p tcp -e 1040 -c 1 -i 8 -a 1 -x {0.0 3.0 -1 ------- null}
r -t 0.2352 -s 4 -d 3 -p tcp -e 1040 -c 1 -i 6 -a 1 -x {0.0 3.0 3 ------- null}
+ -t 0.2352 -s 3 -d 4 -p ack -e 40 -c 1 -i 10 -a 1 -x {3.0 0.0 3 ------- null}
- -t 0.2352 -s 3 -d 4 -p ack -e 40 -c 1 -i 10 -a 1 -x {3.0 0.0 3 ------- null}
h -t 0.2352 -s 3 -d 4 -p ack -e 40 -c 1 -i 10 -a 1 -x {3.0 0.0 -1 ------- null}
r -t 0.24184 -s 0 -d 4 -p tcp -e 1040 -c 1 -i 9 -a 1 -x {0.0 3.0 6 ------- null}
+ -t 0.24184 -s 4 -d 3 -p tcp -e 1040 -c 1 -i 9 -a 1 -x {0.0 3.0 6 ------- null}
- -t 0.24184 -s 4 -d 3 -p tcp -e 1040 -c 1 -i 9 -a 1 -x {0.0 3.0 6 ------- null}
h -t 0.24184 -s 4 -d 3 -p tcp -e 1040 -c 1 -i 9 -a 1 -x {0.0 3.0 -1 ------- null}
r -t 0.24352 -s 4 -d 3 -p tcp -e 1040 -c 1 -i 7 -a 1 -x {0.0 3.0 4 ------- null}
+ -t 0.24352 -s 3 -d 4 -p ack -e 40 -c 1 -i 11 -a 1 -x {3.0 0.0 4 ------- null}
- -t 0.24352 -s 3 -d 4 -p ack -e 40 -c 1 -i 11 -a 1 -x {3.0 0.0 4 ------- null}
h -t 0.24352 -s 3 -d 4 -p ack -e 40 -c 1 -i 11 -a 1 -x {3.0 0.0 -1 ------- null}
r -t 0.24552 -s 3 -d 4 -p ack -e 40 -c 1 -i 10 -a 1 -x {3.0 0.0 3 ------- null}
+ -t 0.24552 -s 4 -d 0 -p ack -e 40 -c 1 -i 10 -a 1 -x {3.0 0.0 3 ------- null}
- -t 0.24552 -s 4 -d 0 -p ack -e 40 -c 1 -i 10 -a 1 -x {3.0 0.0 3 ------- null}
h -t 0.24552 -s 4 -d 0 -p ack -e 40 -c 1 -i 10 -a 1 -x {3.0 0.0 -1 ------- null}
r -t 0.25184 -s 4 -d 3 -p tcp -e 1040 -c 1 -i 8 -a 1 -x {0.0 3.0 5 ------- null}
+ -t 0.25184 -s 3 -d 4 -p ack -e 40 -c 1 -i 12 -a 1 -x {3.0 0.0 5 ------- null}
- -t 0.25184 -s 3 -d 4 -p ack -e 40 -c 1 -i 12 -a 1 -x {3.0 0.0 5 ------- null}
h -t 0.25184 -s 3 -d 4 -p ack -e 40 -c 1 -i 12 -a 1 -x {3.0 0.0 -1 ------- null}
r -t 0.25384 -s 3 -d 4 -p ack -e 40 -c 1 -i 11 -a 1 -x {3.0 0.0 4 ------- null}
+ -t 0.25384 -s 4 -d 0 -p ack -e 40 -c 1 -i 11 -a 1 -x {3.0 0.0 4 ------- null}
- -t 0.25384 -s 4 -d 0 -p ack -e 40 -c 1 -i 11 -a 1 -x {3.0 0.0 4 ------- null}
h -t 0.25384 -s 4 -d 0 -p ack -e 40 -c 1 -i 11 -a 1 -x {3.0 0.0 -1 ------- null}
r -t 0.25584 -s 4 -d 0 -p ack -e 40 -c 1 -i 10 -a 1 -x {3.0 0.0 3 ------- null}
+ -t 0.25584 -s 0 -d 4 -p tcp -e 1040 -c 1 -i 13 -a 1 -x {0.0 3.0 7 ------- null}
- -t 0.25584 -s 0 -d 4 -p tcp -e 1040 -c 1 -i 13 -a 1 -x {0.0 3.0 7 ------- null}
h -t 0.25584 -s 0 -d 4 -p tcp -e 1040 -c 1 -i 13 -a 1 -x {0.0 3.0 -1 ------- null}
+ -t 0.25584 -s 0 -d 4 -p tcp -e 1040 -c 1 -i 14 -a 1 -x {0.0 3.0 8 ------- null}
r -t 0.26016 -s 4 -d 3 -p tcp -e 1040 -c 1 -i 9 -a 1 -x {0.0 3.0 6 ------- null}
+ -t 0.26016 -s 3 -d 4 -p ack -e 40 -c 1 -i 15 -a 1 -x {3.0 0.0 6 ------- null}
- -t 0.26016 -s 3 -d 4 -p ack -e 40 -c 1 -i 15 -a 1 -x {3.0 0.0 6 ------- null}
h -t 0.26016 -s 3 -d 4 -p ack -e 40 -c 1 -i 15 -a 1 -x {3.0 0.0 -1 ------- null}
r -t 0.26216 -s 3 -d 4 -p ack -e 40 -c 1 -i 12 -a 1 -x {3.0 0.0 5 ------- null}
+ -t 0.26216 -s 4 -d 0 -p ack -e 40 -c 1 -i 12 -a 1 -x {3.0 0.0 5 ------- null}
- -t 0.26216 -s 4 -d 0 -p ack -e 40 -c 1 -i 12 -a 1 -x {3.0 0.0 5 ------- null}
h -t 0.26216 -s 4 -d 0 -p ack -e 40 -c 1 -i 12 -a 1 -x {3.0 0.0 -1 ------- null}
r -t 0.26416 -s 4 -d 0 -p ack -e 40 -c 1 -i 11 -a 1 -x {3.0 0.0 4 ------- null}
+ -t 0.26416 -s 0 -d 4 -p tcp -e 1040 -c 1 -i 16 -a 1 -x {0.0 3.0 9 ------- null}
+ -t 0.26416 -s 0 -d 4 -p tcp -e 1040 -c 1 -i 17 -a 1 -x {0.0 3.0 10 ------- null}
- -t 0.26416 -s 0 -d 4 -p tcp -e 1040 -c 1 -i 14 -a 1 -x {0.0 3.0 8 ------- null}
h -t 0.26416 -s 0 -d 4 -p tcp -e 1040 -c 1 -i 14 -a 1 -x {0.0 3.0 -1 ------- null}
r -t 0.27048 -s 3 -d 4 -p ack -e 40 -c 1 -i 15 -a 1 -x {3.0 0.0 6 ------- null}
+ -t 0.27048 -s 4 -d 0 -p ack -e 40 -c 1 -i 15 -a 1 -x {3.0 0.0 6 ------- null}
- -t 0.27048 -s 4 -d 0 -p ack -e 40 -c 1 -i 15 -a 1 -x {3.0 0.0 6 ------- null}
h -t 0.27048 -s 4 -d 0 -p ack -e 40 -c 1 -i 15 -a 1 -x {3.0 0.0 -1 ------- null}
r -t 0.27248 -s 4 -d 0 -p ack -e 40 -c 1 -i 12 -a 1 -x {3.0 0.0 5 ------- null}
+ -t 0.27248 -s 0 -d 4 -p tcp -e 1040 -c 1 -i 18 -a 1 -x {0.0 3.0 11 ------- null}
+ -t 0.27248 -s 0 -d 4 -p tcp -e 1040 -c 1 -i 19 -a 1 -x {0.0 3.0 12 ------- null}
- -t 0.27248 -s 0 -d 4 -p tcp -e 1040 -c 1 -i 16 -a 1 -x {0.0 3.0 9 ------- null}
h -t 0.27248 -s 0 -d 4 -p tcp -e 1040 -c 1 -i 16 -a 1 -x {0.0 3.0 -1 ------- null}
r -t 0.27416 -s 0 -d 4 -p tcp -e 1040 -c 1 -i 13 -a 1 -x {0.0 3.0 7 ------- null}
+ -t 0.27416 -s 4 -d 3 -p tcp -e 1040 -c 1 -i 13 -a 1 -x {0.0 3.0 7 ------- null}
- -t 0.27416 -s 4 -d 3 -p tcp -e 1040 -c 1 -i 13 -a 1 -x {0.0 3.0 7 ------- null}
h -t 0.27416 -s 4 -d 3 -p tcp -e 1040 -c 1 -i 13 -a 1 -x {0.0 3.0 -1 ------- null}
r -t 0.2808 -s 4 -d 0 -p ack -e 40 -c 1 -i 15 -a 1 -x {3.0 0.0 6 ------- null}
+ -t 0.2808 -s 0 -d 4 -p tcp -e 1040 -c 1 -i 20 -a 1 -x {0.0 3.0 13 ------- null}
+ -t 0.2808 -s 0 -d 4 -p tcp -e 1040 -c 1 -i 21 -a 1 -x {0.0 3.0 14 ------- null}
- -t 0.2808 -s 0 -d 4 -p tcp -e 1040 -c 1 -i 17 -a 1 -x {0.0 3.0 10 ------- null}
h -t 0.2808 -s 0 -d 4 -p tcp -e 1040 -c 1 -i 17 -a 1 -x {0.0 3.0 -1 ------- null}
r -t 0.28248 -s 0 -d 4 -p tcp -e 1040 -c 1 -i 14 -a 1 -x {0.0 3.0 8 ------- null}
+ -t 0.28248 -s 4 -d 3 -p tcp -e 1040 -c 1 -i 14 -a 1 -x {0.0 3.0 8 ------- null}
- -t 0.28248 -s 4 -d 3 -p tcp -e 1040 -c 1 -i 14 -a 1 -x {0.0 3.0 8 ------- null}
h -t 0.28248 -s 4 -d 3 -p tcp -e 1040 -c 1 -i 14 -a 1 -x {0.0 3.0 -1 ------- null}
- -t 0.28912 -s 0 -d 4 -p tcp -e 1040 -c 1 -i 18 -a 1 -x {0.0 3.0 11 ------- null}
h -t 0.28912 -s 0 -d 4 -p tcp -e 1040 -c 1 -i 18 -a 1 -x {0.0 3.0 -1 ------- null}
r -t 0.2908 -s 0 -d 4 -p tcp -e 1040 -c 1 -i 16 -a 1 -x {0.0 3.0 9 ------- null}
+ -t 0.2908 -s 4 -d 3 -p tcp -e 1040 -c 1 -i 16 -a 1 -x {0.0 3.0 9 ------- null}
- -t 0.2908 -s 4 -d 3 -p tcp -e 1040 -c 1 -i 16 -a 1 -x {0.0 3.0 9 ------- null}
h -t 0.2908 -s 4 -d 3 -p tcp -e 1040 -c 1 -i 16 -a 1 -x {0.0 3.0 -1 ------- null}
r -t 0.29248 -s 4 -d 3 -p tcp -e 1040 -c 1 -i 13 -a 1 -x {0.0 3.0 7 ------- null}
+ -t 0.29248 -s 3 -d 4 -p ack -e 40 -c 1 -i 22 -a 1 -x {3.0 0.0 7 ------- null}
- -t 0.29248 -s 3 -d 4 -p ack -e 40 -c 1 -i 22 -a 1 -x {3.0 0.0 7 ------- null}
h -t 0.29248 -s 3 -d 4 -p ack -e 40 -c 1 -i 22 -a 1 -x {3.0 0.0 -1 ------- null}
- -t 0.29744 -s 0 -d 4 -p tcp -e 1040 -c 1 -i 19 -a 1 -x {0.0 3.0 12 ------- null}
h -t 0.29744 -s 0 -d 4 -p tcp -e 1040 -c 1 -i 19 -a 1 -x {0.0 3.0 -1 ------- null}
r -t 0.29912 -s 0 -d 4 -p tcp -e 1040 -c 1 -i 17 -a 1 -x {0.0 3.0 10 ------- null}
+ -t 0.29912 -s 4 -d 3 -p tcp -e 1040 -c 1 -i 17 -a 1 -x {0.0 3.0 10 ------- null}
- -t 0.29912 -s 4 -d 3 -p tcp -e 1040 -c 1 -i 17 -a 1 -x {0.0 3.0 10 ------- null}
h -t 0.29912 -s 4 -d 3 -p tcp -e 1040 -c 1 -i 17 -a 1 -x {0.0 3.0 -1 ------- null}
+ -t 0.3 -s 1 -d 4 -p cbr -e 500 -c 2 -i 23 -a 2 -x {1.0 2.0 0 ------- null}
- -t 0.3 -s 1 -d 4 -p cbr -e 500 -c 2 -i 23 -a 2 -x {1.0 2.0 0 ------- null}
h -t 0.3 -s 1 -d 4 -p cbr -e 500 -c 2 -i 23 -a 2 -x {1.0 2.0 -1 ------- null}
r -t 0.3008 -s 4 -d 3 -p tcp -e 1040 -c 1 -i 14 -a 1 -x {0.0 3.0 8 ------- null}
+ -t 0.3008 -s 3 -d 4 -p ack -e 40 -c 1 -i 24 -a 1 -x {3.0 0.0 8 ------- null}
- -t 0.3008 -s 3 -d 4 -p ack -e 40 -c 1 -i 24 -a 1 -x {3.0 0.0 8 ------- null}
h -t 0.3008 -s 3 -d 4 -p ack -e 40 -c 1 -i 24 -a 1 -x {3.0 0.0 -1 ------- null}
r -t 0.3028 -s 3 -d 4 -p ack -e 40 -c 1 -i 22 -a 1 -x {3.0 0.0 7 ------- null}
+ -t 0.3028 -s 4 -d 0 -p ack -e 40 -c 1 -i 22 -a 1 -x {3.0 0.0 7 ------- null}
- -t 0.3028 -s 4 -d 0 -p ack -e 40 -c 1 -i 22 -a 1 -x {3.0 0.0 7 ------- null}
h -t 0.3028 -s 4 -d 0 -p ack -e 40 -c 1 -i 22 -a 1 -x {3.0 0.0 -1 ------- null}
+ -t 0.305 -s 1 -d 4 -p cbr -e 500 -c 2 -i 25 -a 2 -x {1.0 2.0 1 ------- null}
- -t 0.305 -s 1 -d 4 -p cbr -e 500 -c 2 -i 25 -a 2 -x {1.0 2.0 1 ------- null}
h -t 0.305 -s 1 -d 4 -p cbr -e 500 -c 2 -i 25 -a 2 -x {1.0 2.0 -1 ------- null}
- -t 0.30576 -s 0 -d 4 -p tcp -e 1040 -c 1 -i 20 -a 1 -x {0.0 3.0 13 ------- null}
h -t 0.30576 -s 0 -d 4 -p tcp -e 1040 -c 1 -i 20 -a 1 -x {0.0 3.0 -1 ------- null}
r -t 0.30744 -s 0 -d 4 -p tcp -e 1040 -c 1 -i 18 -a 1 -x {0.0 3.0 11 ------- null}
+ -t 0.30744 -s 4 -d 3 -p tcp -e 1040 -c 1 -i 18 -a 1 -x {0.0 3.0 11 ------- null}
- -t 0.30744 -s 4 -d 3 -p tcp -e 1040 -c 1 -i 18 -a 1 -x {0.0 3.0 11 ------- null}
h -t 0.30744 -s 4 -d 3 -p tcp -e 1040 -c 1 -i 18 -a 1 -x {0.0 3.0 -1 ------- null}
r -t 0.30912 -s 4 -d 3 -p tcp -e 1040 -c 1 -i 16 -a 1 -x {0.0 3.0 9 ------- null}
+ -t 0.30912 -s 3 -d 4 -p ack -e 40 -c 1 -i 26 -a 1 -x {3.0 0.0 9 ------- null}
- -t 0.30912 -s 3 -d 4 -p ack -e 40 -c 1 -i 26 -a 1 -x {3.0 0.0 9 ------- null}
h -t 0.30912 -s 3 -d 4 -p ack -e 40 -c 1 -i 26 -a 1 -x {3.0 0.0 -1 ------- null}
+ -t 0.31 -s 1 -d 4 -p cbr -e 500 -c 2 -i 27 -a 2 -x {1.0 2.0 2 ------- null}
- -t 0.31 -s 1 -d 4 -p cbr -e 500 -c 2 -i 27 -a 2 -x {1.0 2.0 2 ------- null}
h -t 0.31 -s 1 -d 4 -p cbr -e 500 -c 2 -i 27 -a 2 -x {1.0 2.0 -1 ------- null}
r -t 0.31112 -s 3 -d 4 -p ack -e 40 -c 1 -i 24 -a 1 -x {3.0 0.0 8 ------- null}
+ -t 0.31112 -s 4 -d 0 -p ack -e 40 -c 1 -i 24 -a 1 -x {3.0 0.0 8 ------- null}
- -t 0.31112 -s 4 -d 0 -p ack -e 40 -c 1 -i 24 -a 1 -x {3.0 0.0 8 ------- null}
h -t 0.31112 -s 4 -d 0 -p ack -e 40 -c 1 -i 24 -a 1 -x {3.0 0.0 -1 ------- null}
r -t 0.31312 -s 4 -d 0 -p ack -e 40 -c 1 -i 22 -a 1 -x {3.0 0.0 7 ------- null}
+ -t 0.31312 -s 0 -d 4 -p tcp -e 1040 -c 1 -i 28 -a 1 -x {0.0 3.0 15 ------- null}
+ -t 0.31312 -s 0 -d 4 -p tcp -e 1040 -c 1 -i 29 -a 1 -x {0.0 3.0 16 ------- null}
r -t 0.314 -s 1 -d 4 -p cbr -e 500 -c 2 -i 23 -a 2 -x {1.0 2.0 0 ------- null}
+ -t 0.314 -s 4 -d 2 -p cbr -e 500 -c 2 -i 23 -a 2 -x {1.0 2.0 0 ------- null}
- -t 0.314 -s 4 -d 2 -p cbr -e 500 -c 2 -i 23 -a 2 -x {1.0 2.0 0 ------- null}
h -t 0.314 -s 4 -d 2 -p cbr -e 500 -c 2 -i 23 -a 2 -x {1.0 2.0 -1 ------- null}
- -t 0.31408 -s 0 -d 4 -p tcp -e 1040 -c 1 -i 21 -a 1 -x {0.0 3.0 14 ------- null}
h -t 0.31408 -s 0 -d 4 -p tcp -e 1040 -c 1 -i 21 -a 1 -x {0.0 3.0 -1 ------- null}
+ -t 0.315 -s 1 -d 4 -p cbr -e 500 -c 2 -i 30 -a 2 -x {1.0 2.0 3 ------- null}
- -t 0.315 -s 1 -d 4 -p cbr -e 500 -c 2 -i 30 -a 2 -x {1.0 2.0 3 ------- null}
h -t 0.315 -s 1 -d 4 -p cbr -e 500 -c 2 -i 30 -a 2 -x {1.0 2.0 -1 ------- null}
r -t 0.31576 -s 0 -d 4 -p tcp -e 1040 -c 1 -i 19 -a 1 -x {0.0 3.0 12 ------- null}
+ -t 0.31576 -s 4 -d 3 -p tcp -e 1040 -c 1 -i 19 -a 1 -x {0.0 3.0 12 ------- null}
- -t 0.31576 -s 4 -d 3 -p tcp -e 1040 -c 1 -i 19 -a 1 -x {0.0 3.0 12 ------- null}
h -t 0.31576 -s 4 -d 3 -p tcp -e 1040 -c 1 -i 19 -a 1 -x {0.0 3.0 -1 ------- null}
r -t 0.31744 -s 4 -d 3 -p tcp -e 1040 -c 1 -i 17 -a 1 -x {0.0 3.0 10 ------- null}
+ -t 0.31744 -s 3 -d 4 -p ack -e 40 -c 1 -i 31 -a 1 -x {3.0 0.0 10 ------- null}
- -t 0.31744 -s 3 -d 4 -p ack -e 40 -c 1 -i 31 -a 1 -x {3.0 0.0 10 ------- null}
h -t 0.31744 -s 3 -d 4 -p ack -e 40 -c 1 -i 31 -a 1 -x {3.0 0.0 -1 ------- null}
r -t 0.319 -s 1 -d 4 -p cbr -e 500 -c 2 -i 25 -a 2 -x {1.0 2.0 1 ------- null}
+ -t 0.319 -s 4 -d 2 -p cbr -e 500 -c 2 -i 25 -a 2 -x {1.0 2.0 1 ------- null}
- -t 0.319 -s 4 -d 2 -p cbr -e 500 -c 2 -i 25 -a 2 -x {1.0 2.0 1 ------- null}
h -t 0.319 -s 4 -d 2 -p cbr -e 500 -c 2 -i 25 -a 2 -x {1.0 2.0 -1 ------- null}
r -t 0.31944 -s 3 -d 4 -p ack -e 40 -c 1 -i 26 -a 1 -x {3.0 0.0 9 ------- null}
+ -t 0.31944 -s 4 -d 0 -p ack -e 40 -c 1 -i 26 -a 1 -x {3.0 0.0 9 ------- null}
- -t 0.31944 -s 4 -d 0 -p ack -e 40 -c 1 -i 26 -a 1 -x {3.0 0.0 9 ------- null}
h -t 0.31944 -s 4 -d 0 -p ack -e 40 -c 1 -i 26 -a 1 -x {3.0 0.0 -1 ------- null}
+ -t 0.32 -s 1 -d 4 -p cbr -e 500 -c 2 -i 32 -a 2 -x {1.0 2.0 4 ------- null}
- -t 0.32 -s 1 -d 4 -p cbr -e 500 -c 2 -i 32 -a 2 -x {1.0 2.0 4 ------- null}
h -t 0.32 -s 1 -d 4 -p cbr -e 500 -c 2 -i 32 -a 2 -x {1.0 2.0 -1 ------- null}
r -t 0.32144 -s 4 -d 0 -p ack -e 40 -c 1 -i 24 -a 1 -x {3.0 0.0 8 ------- null}
+ -t 0.32144 -s 0 -d 4 -p tcp -e 1040 -c 1 -i 33 -a 1 -x {0.0 3.0 17 ------- null}
+ -t 0.32144 -s 0 -d 4 -p tcp -e 1040 -c 1 -i 34 -a 1 -x {0.0 3.0 18 ------- null}
- -t 0.3224 -s 0 -d 4 -p tcp -e 1040 -c 1 -i 28 -a 1 -x {0.0 3.0 15 ------- null}
h -t 0.3224 -s 0 -d 4 -p tcp -e 1040 -c 1 -i 28 -a 1 -x {0.0 3.0 -1 ------- null}
r -t 0.324 -s 1 -d 4 -p cbr -e 500 -c 2 -i 27 -a 2 -x {1.0 2.0 2 ------- null}
+ -t 0.324 -s 4 -d 2 -p cbr -e 500 -c 2 -i 27 -a 2 -x {1.0 2.0 2 ------- null}
- -t 0.324 -s 4 -d 2 -p cbr -e 500 -c 2 -i 27 -a 2 -x {1.0 2.0 2 ------- null}
h -t 0.324 -s 4 -d 2 -p cbr -e 500 -c 2 -i 27 -a 2 -x {1.0 2.0 -1 ------- null}
r -t 0.32408 -s 0 -d 4 -p tcp -e 1040 -c 1 -i 20 -a 1 -x {0.0 3.0 13 ------- null}
+ -t 0.32408 -s 4 -d 3 -p tcp -e 1040 -c 1 -i 20 -a 1 -x {0.0 3.0 13 ------- null}
- -t 0.32408 -s 4 -d 3 -p tcp -e 1040 -c 1 -i 20 -a 1 -x {0.0 3.0 13 ------- null}
h -t 0.32408 -s 4 -d 3 -p tcp -e 1040 -c 1 -i 20 -a 1 -x {0.0 3.0 -1 ------- null}
+ -t 0.325 -s 1 -d 4 -p cbr -e 500 -c 2 -i 35 -a 2 -x {1.0 2.0 5 ------- null}
- -t 0.325 -s 1 -d 4 -p cbr -e 500 -c 2 -i 35 -a 2 -x {1.0 2.0 5 ------- null}
h -t 0.325 -s 1 -d 4 -p cbr -e 500 -c 2 -i 35 -a 2 -x {1.0 2.0 -1 ------- null}
r -t 0.32576 -s 4 -d 3 -p tcp -e 1040 -c 1 -i 18 -a 1 -x {0.0 3.0 11 ------- null}
+ -t 0.32576 -s 3 -d 4 -p ack -e 40 -c 1 -i 36 -a 1 -x {3.0 0.0 11 ------- null}
- -t 0.32576 -s 3 -d 4 -p ack -e 40 -c 1 -i 36 -a 1 -x {3.0 0.0 11 ------- null}
h -t 0.32576 -s 3 -d 4 -p ack -e 40 -c 1 -i 36 -a 1 -x {3.0 0.0 -1 ------- null}
r -t 0.32776 -s 3 -d 4 -p ack -e 40 -c 1 -i 31 -a 1 -x {3.0 0.0 10 ------- null}
+ -t 0.32776 -s 4 -d 0 -p ack -e 40 -c 1 -i 31 -a 1 -x {3.0 0.0 10 ------- null}
- -t 0.32776 -s 4 -d 0 -p ack -e 40 -c 1 -i 31 -a 1 -x {3.0 0.0 10 ------- null}
h -t 0.32776 -s 4 -d 0 -p ack -e 40 -c 1 -i 31 -a 1 -x {3.0 0.0 -1 ------- null}
r -t 0.328 -s 4 -d 2 -p cbr -e 500 -c 2 -i 23 -a 2 -x {1.0 2.0 0 ------- null}
r -t 0.329 -s 1 -d 4 -p cbr -e 500 -c 2 -i 30 -a 2 -x {1.0 2.0 3 ------- null}
+ -t 0.329 -s 4 -d 2 -p cbr -e 500 -c 2 -i 30 -a 2 -x {1.0 2.0 3 ------- null}
- -t 0.329 -s 4 -d 2 -p cbr -e 500 -c 2 -i 30 -a 2 -x {1.0 2.0 3 ------- null}
h -t 0.329 -s 4 -d 2 -p cbr -e 500 -c 2 -i 30 -a 2 -x {1.0 2.0 -1 ------- null}
r -t 0.32976 -s 4 -d 0 -p ack -e 40 -c 1 -i 26 -a 1 -x {3.0 0.0 9 ------- null}
+ -t 0.32976 -s 0 -d 4 -p tcp -e 1040 -c 1 -i 37 -a 1 -x {0.0 3.0 19 ------- null}
+ -t 0.32976 -s 0 -d 4 -p tcp -e 1040 -c 1 -i 38 -a 1 -x {0.0 3.0 20 ------- null}
+ -t 0.33 -s 1 -d 4 -p cbr -e 500 -c 2 -i 39 -a 2 -x {1.0 2.0 6 ------- null}
- -t 0.33 -s 1 -d 4 -p cbr -e 500 -c 2 -i 39 -a 2 -x {1.0 2.0 6 ------- null}
h -t 0.33 -s 1 -d 4 -p cbr -e 500 -c 2 -i 39 -a 2 -x {1.0 2.0 -1 ------- null}
- -t 0.33072 -s 0 -d 4 -p tcp -e 1040 -c 1 -i 29 -a 1 -x {0.0 3.0 16 ------- null}
h -t 0.33072 -s 0 -d 4 -p tcp -e 1040 -c 1 -i 29 -a 1 -x {0.0 3.0 -1 ------- null}
r -t 0.3324 -s 0 -d 4 -p tcp -e 1040 -c 1 -i 21 -a 1 -x {0.0 3.0 14 ------- null}
+ -t 0.3324 -s 4 -d 3 -p tcp -e 1040 -c 1 -i 21 -a 1 -x {0.0 3.0 14 ------- null}
- -t 0.3324 -s 4 -d 3 -p tcp -e 1040 -c 1 -i 21 -a 1 -x {0.0 3.0 14 ------- null}
h -t 0.3324 -s 4 -d 3 -p tcp -e 1040 -c 1 -i 21 -a 1 -x {0.0 3.0 -1 ------- null}
r -t 0.333 -s 4 -d 2 -p cbr -e 500 -c 2 -i 25 -a 2 -x {1.0 2.0 1 ------- null}
r -t 0.334 -s 1 -d 4 -p cbr -e 500 -c 2 -i 32 -a 2 -x {1.0 2.0 4 ------- null}
+ -t 0.334 -s 4 -d 2 -p cbr -e 500 -c 2 -i 32 -a 2 -x {1.0 2.0 4 ------- null}
- -t 0.334 -s 4 -d 2 -p cbr -e 500 -c 2 -i 32 -a 2 -x {1.0 2.0 4 ------- null}
h -t 0.334 -s 4 -d 2 -p cbr -e 500 -c 2 -i 32 -a 2 -x {1.0 2.0 -1 ------- null}
r -t 0.33408 -s 4 -d 3 -p tcp -e 1040 -c 1 -i 19 -a 1 -x {0.0 3.0 12 ------- null}
+ -t 0.33408 -s 3 -d 4 -p ack -e 40 -c 1 -i 40 -a 1 -x {3.0 0.0 12 ------- null}
- -t 0.33408 -s 3 -d 4 -p ack -e 40 -c 1 -i 40 -a 1 -x {3.0 0.0 12 ------- null}
h -t 0.33408 -s 3 -d 4 -p ack -e 40 -c 1 -i 40 -a 1 -x {3.0 0.0 -1 ------- null}
+ -t 0.335 -s 1 -d 4 -p cbr -e 500 -c 2 -i 41 -a 2 -x {1.0 2.0 7 ------- null}
- -t 0.335 -s 1 -d 4 -p cbr -e 500 -c 2 -i 41 -a 2 -x {1.0 2.0 7 ------- null}
h -t 0.335 -s 1 -d 4 -p cbr -e 500 -c 2 -i 41 -a 2 -x {1.0 2.0 -1 ------- null}
r -t 0.33608 -s 3 -d 4 -p ack -e 40 -c 1 -i 36 -a 1 -x {3.0 0.0 11 ------- null}
+ -t 0.33608 -s 4 -d 0 -p ack -e 40 -c 1 -i 36 -a 1 -x {3.0 0.0 11 ------- null}
- -t 0.33608 -s 4 -d 0 -p ack -e 40 -c 1 -i 36 -a 1 -x {3.0 0.0 11 ------- null}
h -t 0.33608 -s 4 -d 0 -p ack -e 40 -c 1 -i 36 -a 1 -x {3.0 0.0 -1 ------- null}
r -t 0.338 -s 4 -d 2 -p cbr -e 500 -c 2 -i 27 -a 2 -x {1.0 2.0 2 ------- null}
r -t 0.33808 -s 4 -d 0 -p ack -e 40 -c 1 -i 31 -a 1 -x {3.0 0.0 10 ------- null}
+ -t 0.33808 -s 0 -d 4 -p tcp -e 1040 -c 1 -i 42 -a 1 -x {0.0 3.0 21 ------- null}
+ -t 0.33808 -s 0 -d 4 -p tcp -e 1040 -c 1 -i 43 -a 1 -x {0.0 3.0 22 ------- null}
r -t 0.339 -s 1 -d 4 -p cbr -e 500 -c 2 -i 35 -a 2 -x {1.0 2.0 5 ------- null}
+ -t 0.339 -s 4 -d 2 -p cbr -e 500 -c 2 -i 35 -a 2 -x {1.0 2.0 5 ------- null}
- -t 0.339 -s 4 -d 2 -p cbr -e 500 -c 2 -i 35 -a 2 -x {1.0 2.0 5 ------- null}
h -t 0.339 -s 4 -d 2 -p cbr -e 500 -c 2 -i 35 -a 2 -x {1.0 2.0 -1 ------- null}
- -t 0.33904 -s 0 -d 4 -p tcp -e 1040 -c 1 -i 33 -a 1 -x {0.0 3.0 17 ------- null}
h -t 0.33904 -s 0 -d 4 -p tcp -e 1040 -c 1 -i 33 -a 1 -x {0.0 3.0 -1 ------- null}
+ -t 0.34 -s 1 -d 4 -p cbr -e 500 -c 2 -i 44 -a 2 -x {1.0 2.0 8 ------- null}
- -t 0.34 -s 1 -d 4 -p cbr -e 500 -c 2 -i 44 -a 2 -x {1.0 2.0 8 ------- null}
h -t 0.34 -s 1 -d 4 -p cbr -e 500 -c 2 -i 44 -a 2 -x {1.0 2.0 -1 ------- null}
r -t 0.34072 -s 0 -d 4 -p tcp -e 1040 -c 1 -i 28 -a 1 -x {0.0 3.0 15 ------- null}
+ -t 0.34072 -s 4 -d 3 -p tcp -e 1040 -c 1 -i 28 -a 1 -x {0.0 3.0 15 ------- null}
- -t 0.34072 -s 4 -d 3 -p tcp -e 1040 -c 1 -i 28 -a 1 -x {0.0 3.0 15 ------- null}
h -t 0.34072 -s 4 -d 3 -p tcp -e 1040 -c 1 -i 28 -a 1 -x {0.0 3.0 -1 ------- null}
r -t 0.3424 -s 4 -d 3 -p tcp -e 1040 -c 1 -i 20 -a 1 -x {0.0 3.0 13 ------- null}
+ -t 0.3424 -s 3 -d 4 -p ack -e 40 -c 1 -i 45 -a 1 -x {3.0 0.0 13 ------- null}
- -t 0.3424 -s 3 -d 4 -p ack -e 40 -c 1 -i 45 -a 1 -x {3.0 0.0 13 ------- null}
h -t 0.3424 -s 3 -d 4 -p ack -e 40 -c 1 -i 45 -a 1 -x {3.0 0.0 -1 ------- null}
r -t 0.343 -s 4 -d 2 -p cbr -e 500 -c 2 -i 30 -a 2 -x {1.0 2.0 3 ------- null}
r -t 0.344 -s 1 -d 4 -p cbr -e 500 -c 2 -i 39 -a 2 -x {1.0 2.0 6 ------- null}
+ -t 0.344 -s 4 -d 2 -p cbr -e 500 -c 2 -i 39 -a 2 -x {1.0 2.0 6 ------- null}
- -t 0.344 -s 4 -d 2 -p cbr -e 500 -c 2 -i 39 -a 2 -x {1.0 2.0 6 ------- null}
h -t 0.344 -s 4 -d 2 -p cbr -e 500 -c 2 -i 39 -a 2 -x {1.0 2.0 -1 ------- null}
r -t 0.3444 -s 3 -d 4 -p ack -e 40 -c 1 -i 40 -a 1 -x {3.0 0.0 12 ------- null}
+ -t 0.3444 -s 4 -d 0 -p ack -e 40 -c 1 -i 40 -a 1 -x {3.0 0.0 12 ------- null}
- -t 0.3444 -s 4 -d 0 -p ack -e 40 -c 1 -i 40 -a 1 -x {3.0 0.0 12 ------- null}
h -t 0.3444 -s 4 -d 0 -p ack -e 40 -c 1 -i 40 -a 1 -x {3.0 0.0 -1 ------- null}
+ -t 0.345 -s 1 -d 4 -p cbr -e 500 -c 2 -i 46 -a 2 -x {1.0 2.0 9 ------- null}
- -t 0.345 -s 1 -d 4 -p cbr -e 500 -c 2 -i 46 -a 2 -x {1.0 2.0 9 ------- null}
h -t 0.345 -s 1 -d 4 -p cbr -e 500 -c 2 -i 46 -a 2 -x {1.0 2.0 -1 ------- null}
r -t 0.3464 -s 4 -d 0 -p ack -e 40 -c 1 -i 36 -a 1 -x {3.0 0.0 11 ------- null}
+ -t 0.3464 -s 0 -d 4 -p tcp -e 1040 -c 1 -i 47 -a 1 -x {0.0 3.0 23 ------- null}
+ -t 0.3464 -s 0 -d 4 -p tcp -e 1040 -c 1 -i 48 -a 1 -x {0.0 3.0 24 ------- null}
- -t 0.34736 -s 0 -d 4 -p tcp -e 1040 -c 1 -i 34 -a 1 -x {0.0 3.0 18 ------- null}
h -t 0.34736 -s 0 -d 4 -p tcp -e 1040 -c 1 -i 34 -a 1 -x {0.0 3.0 -1 ------- null}
r -t 0.348 -s 4 -d 2 -p cbr -e 500 -c 2 -i 32 -a 2 -x {1.0 2.0 4 ------- null}
r -t 0.349 -s 1 -d 4 -p cbr -e 500 -c 2 -i 41 -a 2 -x {1.0 2.0 7 ------- null}
+ -t 0.349 -s 4 -d 2 -p cbr -e 500 -c 2 -i 41 -a 2 -x {1.0 2.0 7 ------- null}
- -t 0.349 -s 4 -d 2 -p cbr -e 500 -c 2 -i 41 -a 2 -x {1.0 2.0 7 ------- null}
h -t 0.349 -s 4 -d 2 -p cbr -e 500 -c 2 -i 41 -a 2 -x {1.0 2.0 -1 ------- null}
r -t 0.34904 -s 0 -d 4 -p tcp -e 1040 -c 1 -i 29 -a 1 -x {0.0 3.0 16 ------- null}
+ -t 0.34904 -s 4 -d 3 -p tcp -e 1040 -c 1 -i 29 -a 1 -x {0.0 3.0 16 ------- null}
- -t 0.34904 -s 4 -d 3 -p tcp -e 1040 -c 1 -i 29 -a 1 -x {0.0 3.0 16 ------- null}
h -t 0.34904 -s 4 -d 3 -p tcp -e 1040 -c 1 -i 29 -a 1 -x {0.0 3.0 -1 ------- null}
+ -t 0.35 -s 1 -d 4 -p cbr -e 500 -c 2 -i 49 -a 2 -x {1.0 2.0 10 ------- null}
- -t 0.35 -s 1 -d 4 -p cbr -e 500 -c 2 -i 49 -a 2 -x {1.0 2.0 10 ------- null}
h -t 0.35 -s 1 -d 4 -p cbr -e 500 -c 2 -i 49 -a 2 -x {1.0 2.0 -1 ------- null}
r -t 0.35072 -s 4 -d 3 -p tcp -e 1040 -c 1 -i 21 -a 1 -x {0.0 3.0 14 ------- null}
+ -t 0.35072 -s 3 -d 4 -p ack -e 40 -c 1 -i 50 -a 1 -x {3.0 0.0 14 ------- null}
- -t 0.35072 -s 3 -d 4 -p ack -e 40 -c 1 -i 50 -a 1 -x {3.0 0.0 14 ------- null}
h -t 0.35072 -s 3 -d 4 -p ack -e 40 -c 1 -i 50 -a 1 -x {3.0 0.0 -1 ------- null}
r -t 0.35272 -s 3 -d 4 -p ack -e 40 -c 1 -i 45 -a 1 -x {3.0 0.0 13 ------- null}
+ -t 0.35272 -s 4 -d 0 -p ack -e 40 -c 1 -i 45 -a 1 -x {3.0 0.0 13 ------- null}
- -t 0.35272 -s 4 -d 0 -p ack -e 40 -c 1 -i 45 -a 1 -x {3.0 0.0 13 ------- null}
h -t 0.35272 -s 4 -d 0 -p ack -e 40 -c 1 -i 45 -a 1 -x {3.0 0.0 -1 ------- null}
r -t 0.353 -s 4 -d 2 -p cbr -e 500 -c 2 -i 35 -a 2 -x {1.0 2.0 5 ------- null}
r -t 0.354 -s 1 -d 4 -p cbr -e 500 -c 2 -i 44 -a 2 -x {1.0 2.0 8 ------- null}
+ -t 0.354 -s 4 -d 2 -p cbr -e 500 -c 2 -i 44 -a 2 -x {1.0 2.0 8 ------- null}
- -t 0.354 -s 4 -d 2 -p cbr -e 500 -c 2 -i 44 -a 2 -x {1.0 2.0 8 ------- null}
h -t 0.354 -s 4 -d 2 -p cbr -e 500 -c 2 -i 44 -a 2 -x {1.0 2.0 -1 ------- null}
r -t 0.35472 -s 4 -d 0 -p ack -e 40 -c 1 -i 40 -a 1 -x {3.0 0.0 12 ------- null}
+ -t 0.35472 -s 0 -d 4 -p tcp -e 1040 -c 1 -i 51 -a 1 -x {0.0 3.0 25 ------- null}
+ -t 0.35472 -s 0 -d 4 -p tcp -e 1040 -c 1 -i 52 -a 1 -x {0.0 3.0 26 ------- null}
+ -t 0.355 -s 1 -d 4 -p cbr -e 500 -c 2 -i 53 -a 2 -x {1.0 2.0 11 ------- null}
- -t 0.355 -s 1 -d 4 -p cbr -e 500 -c 2 -i 53 -a 2 -x {1.0 2.0 11 ------- null}
h -t 0.355 -s 1 -d 4 -p cbr -e 500 -c 2 -i 53 -a 2 -x {1.0 2.0 -1 ------- null}
- -t 0.35568 -s 0 -d 4 -p tcp -e 1040 -c 1 -i 37 -a 1 -x {0.0 3.0 19 ------- null}
h -t 0.35568 -s 0 -d 4 -p tcp -e 1040 -c 1 -i 37 -a 1 -x {0.0 3.0 -1 ------- null}
r -t 0.35736 -s 0 -d 4 -p tcp -e 1040 -c 1 -i 33 -a 1 -x {0.0 3.0 17 ------- null}
+ -t 0.35736 -s 4 -d 3 -p tcp -e 1040 -c 1 -i 33 -a 1 -x {0.0 3.0 17 ------- null}
- -t 0.35736 -s 4 -d 3 -p tcp -e 1040 -c 1 -i 33 -a 1 -x {0.0 3.0 17 ------- null}
h -t 0.35736 -s 4 -d 3 -p tcp -e 1040 -c 1 -i 33 -a 1 -x {0.0 3.0 -1 ------- null}
r -t 0.358 -s 4 -d 2 -p cbr -e 500 -c 2 -i 39 -a 2 -x {1.0 2.0 6 ------- null}
r -t 0.359 -s 1 -d 4 -p cbr -e 500 -c 2 -i 46 -a 2 -x {1.0 2.0 9 ------- null}
+ -t 0.359 -s 4 -d 2 -p cbr -e 500 -c 2 -i 46 -a 2 -x {1.0 2.0 9 ------- null}
- -t 0.359 -s 4 -d 2 -p cbr -e 500 -c 2 -i 46 -a 2 -x {1.0 2.0 9 ------- null}
h -t 0.359 -s 4 -d 2 -p cbr -e 500 -c 2 -i 46 -a 2 -x {1.0 2.0 -1 ------- null}
r -t 0.35904 -s 4 -d 3 -p tcp -e 1040 -c 1 -i 28 -a 1 -x {0.0 3.0 15 ------- null}
+ -t 0.35904 -s 3 -d 4 -p ack -e 40 -c 1 -i 54 -a 1 -x {3.0 0.0 15 ------- null}
- -t 0.35904 -s 3 -d 4 -p ack -e 40 -c 1 -i 54 -a 1 -x {3.0 0.0 15 ------- null}
h -t 0.35904 -s 3 -d 4 -p ack -e 40 -c 1 -i 54 -a 1 -x {3.0 0.0 -1 ------- null}
+ -t 0.36 -s 1 -d 4 -p cbr -e 500 -c 2 -i 55 -a 2 -x {1.0 2.0 12 ------- null}
- -t 0.36 -s 1 -d 4 -p cbr -e 500 -c 2 -i 55 -a 2 -x {1.0 2.0 12 ------- null}
h -t 0.36 -s 1 -d 4 -p cbr -e 500 -c 2 -i 55 -a 2 -x {1.0 2.0 -1 ------- null}
r -t 0.36104 -s 3 -d 4 -p ack -e 40 -c 1 -i 50 -a 1 -x {3.0 0.0 14 ------- null}
+ -t 0.36104 -s 4 -d 0 -p ack -e 40 -c 1 -i 50 -a 1 -x {3.0 0.0 14 ------- null}
- -t 0.36104 -s 4 -d 0 -p ack -e 40 -c 1 -i 50 -a 1 -x {3.0 0.0 14 ------- null}
h -t 0.36104 -s 4 -d 0 -p ack -e 40 -c 1 -i 50 -a 1 -x {3.0 0.0 -1 ------- null}