n -t 0 -s 0 -S DLABEL -l "source/udp0" -L ""
n -t 0 -s 1 -S DLABEL -l "source/udp1" -L ""
n -t 0 -s 2 -S DLABEL -l "router" -L ""
n -t 0 -s 3 -S DLABEL -l "destination/null" -L ""
V -t * -v 1.0a5 -a 0
A -t * -n 1 -p 0 -o 0x7fffffff -c 30 -a 1
A -t * -h 1 -m 1073741823 -s 0
c -t * -i 1 -n red
c -t * -i 2 -n blue
n -t * -a 0 -s 0 -S UP -v circle -c black -i black
n -t * -a 1 -s 1 -S UP -v circle -c black -i black
n -t * -a 2 -s 2 -S UP -v circle -c black -i black
n -t * -a 3 -s 3 -S UP -v circle -c black -i black
l -t * -s 0 -d 2 -S UP -r 10000000 -D 0.29999999999999999 -c black
l -t * -s 1 -d 2 -S UP -r 10000000 -D 0.29999999999999999 -c black
l -t * -s 2 -d 3 -S UP -r 1000000 -D 0.29999999999999999 -c black
+ -t 0.1 -s 0 -d 2 -p cbr -e 500 -c 1 -i 0 -a 1 -x {0.0 3.0 0 ------- null}
- -t 0.1 -s 0 -d 2 -p cbr -e 500 -c 1 -i 0 -a 1 -x {0.0 3.0 0 ------- null}
h -t 0.1 -s 0 -d 2 -p cbr -e 500 -c 1 -i 0 -a 1 -x {0.0 3.0 -1 ------- null}
+ -t 0.1 -s 1 -d 2 -p cbr -e 500 -c 2 -i 1 -a 2 -x {1.0 3.0 0 ------- null}
- -t 0.1 -s 1 -d 2 -p cbr -e 500 -c 2 -i 1 -a 2 -x {1.0 3.0 0 ------- null}
h -t 0.1 -s 1 -d 2 -p cbr -e 500 -c 2 -i 1 -a 2 -x {1.0 3.0 -1 ------- null}
+ -t 0.105 -s 0 -d 2 -p cbr -e 500 -c 1 -i 2 -a 1 -x {0.0 3.0 1 ------- null}
- -t 0.105 -s 0 -d 2 -p cbr -e 500 -c 1 -i 2 -a 1 -x {0.0 3.0 1 ------- null}
h -t 0.105 -s 0 -d 2 -p cbr -e 500 -c 1 -i 2 -a 1 -x {0.0 3.0 -1 ------- null}
+ -t 0.105 -s 1 -d 2 -p cbr -e 500 -c 2 -i 3 -a 2 -x {1.0 3.0 1 ------- null}
- -t 0.105 -s 1 -d 2 -p cbr -e 500 -c 2 -i 3 -a 2 -x {1.0 3.0 1 ------- null}
h -t 0.105 -s 1 -d 2 -p cbr -e 500 -c 2 -i 3 -a 2 -x {1.0 3.0 -1 ------- null}
+ -t 0.11 -s 0 -d 2 -p cbr -e 500 -c 1 -i 4 -a 1 -x {0.0 3.0 2 ------- null}
- -t 0.11 -s 0 -d 2 -p cbr -e 500 -c 1 -i 4 -a 1 -x {0.0 3.0 2 ------- null}
h -t 0.11 -s 0 -d 2 -p cbr -e 500 -c 1 -i 4 -a 1 -x {0.0 3.0 -1 ------- null}
+ -t 0.11 -s 1 -d 2 -p cbr -e 500 -c 2 -i 5 -a 2 -x {1.0 3.0 2 ------- null}
- -t 0.11 -s 1 -d 2 -p cbr -e 500 -c 2 -i 5 -a 2 -x {1.0 3.0 2 ------- null}
h -t 0.11 -s 1 -d 2 -p cbr -e 500 -c 2 -i 5 -a 2 -x {1.0 3.0 -1 ------- null}
+ -t 0.115 -s 0 -d 2 -p cbr -e 500 -c 1 -i 6 -a 1 -x {0.0 3.0 3 ------- null}
- -t 0.115 -s 0 -d 2 -p cbr -e 500 -c 1 -i 6 -a 1 -x {0.0 3.0 3 ------- null}
h -t 0.115 -s 0 -d 2 -p cbr -e 500 -c 1 -i 6 -a 1 -x {0.0 3.0 -1 ------- null}
+ -t 0.115 -s 1 -d 2 -p cbr -e 500 -c 2 -i 7 -a 2 -x {1.0 3.0 3 ------- null}
- -t 0.115 -s 1 -d 2 -p cbr -e 500 -c 2 -i 7 -a 2 -x {1.0 3.0 3 ------- null}
h -t 0.115 -s 1 -d 2 -p cbr -e 500 -c 2 -i 7 -a 2 -x {1.0 3.0 -1 ------- null}
+ -t 0.12 -s 0 -d 2 -p cbr -e 500 -c 1 -i 8 -a 1 -x {0.0 3.0 4 ------- null}
- -t 0.12 -s 0 -d 2 -p cbr -e 500 -c 1 -i 8 -a 1 -x {0.0 3.0 4 ------- null}
h -t 0.12 -s 0 -d 2 -p cbr -e 500 -c 1 -i 8 -a 1 -x {0.0 3.0 -1 ------- null}
+ -t 0.12 -s 1 -d 2 -p cbr -e 500 -c 2 -i 9 -a 2 -x {1.0 3.0 4 ------- null}
- -t 0.12 -s 1 -d 2 -p cbr -e 500 -c 2 -i 9 -a 2 -x {1.0 3.0 4 ------- null}
h -t 0.12 -s 1 -d 2 -p cbr -e 500 -c 2 -i 9 -a 2 -x {1.0 3.0 -1 ------- null}
+ -t 0.125 -s 0 -d 2 -p cbr -e 500 -c 1 -i 10 -a 1 -x {0.0 3.0 5 ------- null}
- -t 0.125 -s 0 -d 2 -p cbr -e 500 -c 1 -i 10 -a 1 -x {0.0 3.0 5 ------- null}
h -t 0.125 -s 0 -d 2 -p cbr -e 500 -c 1 -i 10 -a 1 -x {0.0 3.0 -1 ------- null}
+ -t 0.125 -s 1 -d 2 -p cbr -e 500 -c 2 -i 11 -a 2 -x {1.0 3.0 5 ------- null}
- -t 0.125 -s 1 -d 2 -p cbr -e 500 -c 2 -i 11 -a 2 -x {1.0 3.0 5 ------- null}
h -t 0.125 -s 1 -d 2 -p cbr -e 500 -c 2 -i 11 -a 2 -x {1.0 3.0 -1 ------- null}
+ -t 0.13 -s 0 -d 2 -p cbr -e 500 -c 1 -i 12 -a 1 -x {0.0 3.0 6 ------- null}
- -t 0.13 -s 0 -d 2 -p cbr -e 500 -c 1 -i 12 -a 1 -x {0.0 3.0 6 ------- null}
h -t 0.13 -s 0 -d 2 -p cbr -e 500 -c 1 -i 12 -a 1 -x {0.0 3.0 -1 ------- null}
+ -t 0.13 -s 1 -d 2 -p cbr -e 500 -c 2 -i 13 -a 2 -x {1.0 3.0 6 ------- null}
- -t 0.13 -s 1 -d 2 -p cbr -e 500 -c 2 -i 13 -a 2 -x {1.0 3.0 6 ------- null}
h -t 0.13 -s 1 -d 2 -p cbr -e 500 -c 2 -i 13 -a 2 -x {1.0 3.0 -1 ------- null}
+ -t 0.135 -s 0 -d 2 -p cbr -e 500 -c 1 -i 14 -a 1 -x {0.0 3.0 7 ------- null}
- -t 0.135 -s 0 -d 2 -p cbr -e 500 -c 1 -i 14 -a 1 -x {0.0 3.0 7 ------- null}
h -t 0.135 -s 0 -d 2 -p cbr -e 500 -c 1 -i 14 -a 1 -x {0.0 3.0 -1 ------- null}
+ -t 0.135 -s 1 -d 2 -p cbr -e 500 -c 2 -i 15 -a 2 -x {1.0 3.0 7 ------- null}
- -t 0.135 -s 1 -d 2 -p cbr -e 500 -c 2 -i 15 -a 2 -x {1.0 3.0 7 ------- null}
h -t 0.135 -s 1 -d 2 -p cbr -e 500 -c 2 -i 15 -a 2 -x {1.0 3.0 -1 ------- null}
+ -t 0.14 -s 0 -d 2 -p cbr -e 500 -c 1 -i 16 -a 1 -x {0.0 3.0 8 ------- null}
- -t 0.14 -s 0 -d 2 -p cbr -e 500 -c 1 -i 16 -a 1 -x {0.0 3.0 8 ------- null}
h -t 0.14 -s 0 -d 2 -p cbr -e 500 -c 1 -i 16 -a 1 -x {0.0 3.0 -1 ------- null}
+ -t 0.14 -s 1 -d 2 -p cbr -e 500 -c 2 -i 17 -a 2 -x {1.0 3.0 8 ------- null}
- -t 0.14 -s 1 -d 2 -p cbr -e 500 -c 2 -i 17 -a 2 -x {1.0 3.0 8 ------- null}
h -t 0.14 -s 1 -d 2 -p cbr -e 500 -c 2 -i 17 -a 2 -x {1.0 3.0 -1 ------- null}
+ -t 0.145 -s 0 -d 2 -p cbr -e 500 -c 1 -i 18 -a 1 -x {0.0 3.0 9 ------- null}
- -t 0.145 -s 0 -d 2 -p cbr -e 500 -c 1 -i 18 -a 1 -x {0.0 3.0 9 ------- null}
h -t 0.145 -s 0 -d 2 -p cbr -e 500 -c 1 -i 18 -a 1 -x {0.0 3.0 -1 ------- null}
+ -t 0.145 -s 1 -d 2 -p cbr -e 500 -c 2 -i 19 -a 2 -x {1.0 3.0 9 ------- null}
- -t 0.145 -s 1 -d 2 -p cbr -e 500 -c 2 -i 19 -a 2 -x {1.0 3.0 9 ------- null}
h -t 0.145 -s 1 -d 2 -p cbr -e 500 -c 2 -i 19 -a 2 -x {1.0 3.0 -1 ------- null}
+ -t 0.15 -s 0 -d 2 -p cbr -e 500 -c 1 -i 20 -a 1 -x {0.0 3.0 10 ------- null}
- -t 0.15 -s 0 -d 2 -p cbr -e 500 -c 1 -i 20 -a 1 -x {0.0 3.0 10 ------- null}
h -t 0.15 -s 0 -d 2 -p cbr -e 500 -c 1 -i 20 -a 1 -x {0.0 3.0 -1 ------- null}
+ -t 0.15 -s 1 -d 2 -p cbr -e 500 -c 2 -i 21 -a 2 -x {1.0 3.0 10 ------- null}
- -t 0.15 -s 1 -d 2 -p cbr -e 500 -c 2 -i 21 -a 2 -x {1.0 3.0 10 ------- null}
h -t 0.15 -s 1 -d 2 -p cbr -e 500 -c 2 -i 21 -a 2 -x {1.0 3.0 -1 ------- null}
+ -t 0.155 -s 0 -d 2 -p cbr -e 500 -c 1 -i 22 -a 1 -x {0.0 3.0 11 ------- null}
- -t 0.155 -s 0 -d 2 -p cbr -e 500 -c 1 -i 22 -a 1 -x {0.0 3.0 11 ------- null}
h -t 0.155 -s 0 -d 2 -p cbr -e 500 -c 1 -i 22 -a 1 -x {0.0 3.0 -1 ------- null}
+ -t 0.155 -s 1 -d 2 -p cbr -e 500 -c 2 -i 23 -a 2 -x {1.0 3.0 11 ------- null}
- -t 0.155 -s 1 -d 2 -p cbr -e 500 -c 2 -i 23 -a 2 -x {1.0 3.0 11 ------- null}
h -t 0.155 -s 1 -d 2 -p cbr -e 500 -c 2 -i 23 -a 2 -x {1.0 3.0 -1 ------- null}
+ -t 0.16 -s 0 -d 2 -p cbr -e 500 -c 1 -i 24 -a 1 -x {0.0 3.0 12 ------- null}
- -t 0.16 -s 0 -d 2 -p cbr -e 500 -c 1 -i 24 -a 1 -x {0.0 3.0 12 ------- null}
h -t 0.16 -s 0 -d 2 -p cbr -e 500 -c 1 -i 24 -a 1 -x {0.0 3.0 -1 ------- null}
+ -t 0.16 -s 1 -d 2 -p cbr -e 500 -c 2 -i 25 -a 2 -x {1.0 3.0 12 ------- null}
- -t 0.16 -s 1 -d 2 -p cbr -e 500 -c 2 -i 25 -a 2 -x {1.0 3.0 12 ------- null}
h -t 0.16 -s 1 -d 2 -p cbr -e 500 -c 2 -i 25 -a 2 -x {1.0 3.0 -1 ------- null}
+ -t 0.165 -s 0 -d 2 -p cbr -e 500 -c 1 -i 26 -a 1 -x {0.0 3.0 13 ------- null}
- -t 0.165 -s 0 -d 2 -p cbr -e 500 -c 1 -i 26 -a 1 -x {0.0 3.0 13 ------- null}
h -t 0.165 -s 0 -d 2 -p cbr -e 500 -c 1 -i 26 -a 1 -x {0.0 3.0 -1 ------- null}
+ -t 0.165 -s 1 -d 2 -p cbr -e 500 -c 2 -i 27 -a 2 -x {1.0 3.0 13 ------- null}
- -t 0.165 -s 1 -d 2 -p cbr -e 500 -c 2 -i 27 -a 2 -x {1.0 3.0 13 ------- null}
h -t 0.165 -s 1 -d 2 -p cbr -e 500 -c 2 -i 27 -a 2 -x {1.0 3.0 -1 ------- null}
+ -t 0.17 -s 0 -d 2 -p cbr -e 500 -c 1 -i 28 -a 1 -x {0.0 3.0 14 ------- null}
- -t 0.17 -s 0 -d 2 -p cbr -e 500 -c 1 -i 28 -a 1 -x {0.0 3.0 14 ------- null}
h -t 0.17 -s 0 -d 2 -p cbr -e 500 -c 1 -i 28 -a 1 -x {0.0 3.0 -1 ------- null}
+ -t 0.17 -s 1 -d 2 -p cbr -e 500 -c 2 -i 29 -a 2 -x {1.0 3.0 14 ------- null}
- -t 0.17 -s 1 -d 2 -p cbr -e 500 -c 2 -i 29 -a 2 -x {1.0 3.0 14 ------- null}
h -t 0.17 -s 1 -d 2 -p cbr -e 500 -c 2 -i 29 -a 2 -x {1.0 3.0 -1 ------- null}
+ -t 0.175 -s 0 -d 2 -p cbr -e 500 -c 1 -i 30 -a 1 -x {0.0 3.0 15 ------- null}
- -t 0.175 -s 0 -d 2 -p cbr -e 500 -c 1 -i 30 -a 1 -x {0.0 3.0 15 ------- null}
h -t 0.175 -s 0 -d 2 -p cbr -e 500 -c 1 -i 30 -a 1 -x {0.0 3.0 -1 ------- null}
+ -t 0.175 -s 1 -d 2 -p cbr -e 500 -c 2 -i 31 -a 2 -x {1.0 3.0 15 ------- null}
- -t 0.175 -s 1 -d 2 -p cbr -e 500 -c 2 -i 31 -a 2 -x {1.0 3.0 15 ------- null}
h -t 0.175 -s 1 -d 2 -p cbr -e 500 -c 2 -i 31 -a 2 -x {1.0 3.0 -1 ------- null}
+ -t 0.18 -s 0 -d 2 -p cbr -e 500 -c 1 -i 32 -a 1 -x {0.0 3.0 16 ------- null}
- -t 0.18 -s 0 -d 2 -p cbr -e 500 -c 1 -i 32 -a 1 -x {0.0 3.0 16 ------- null}
h -t 0.18 -s 0 -d 2 -p cbr -e 500 -c 1 -i 32 -a 1 -x {0.0 3.0 -1 ------- null}
+ -t 0.18 -s 1 -d 2 -p cbr -e 500 -c 2 -i 33 -a 2 -x {1.0 3.0 16 ------- null}
- -t 0.18 -s 1 -d 2 -p cbr -e 500 -c 2 -i 33 -a 2 -x {1.0 3.0 16 ------- null}
h -t 0.18 -s 1 -d 2 -p cbr -e 500 -c 2 -i 33 -a 2 -x {1.0 3.0 -1 ------- null}
+ -t 0.185 -s 0 -d 2 -p cbr -e 500 -c 1 -i 34 -a 1 -x {0.0 3.0 17 ------- null}
- -t 0.185 -s 0 -d 2 -p cbr -e 500 -c 1 -i 34 -a 1 -x {0.0 3.0 17 ------- null}
h -t 0.185 -s 0 -d 2 -p cbr -e 500 -c 1 -i 34 -a 1 -x {0.0 3.0 -1 ------- null}
+ -t 0.185 -s 1 -d 2 -p cbr -e 500 -c 2 -i 35 -a 2 -x {1.0 3.0 17 ------- null}
- -t 0.185 -s 1 -d 2 -p cbr -e 500 -c 2 -i 35 -a 2 -x {1.0 3.0 17 ------- null}
h -t 0.185 -s 1 -d 2 -p cbr -e 500 -c 2 -i 35 -a 2 -x {1.0 3.0 -1 ------- null}
+ -t 0.19 -s 0 -d 2 -p cbr -e 500 -c 1 -i 36 -a 1 -x {0.0 3.0 18 ------- null}
- -t 0.19 -s 0 -d 2 -p cbr -e 500 -c 1 -i 36 -a 1 -x {0.0 3.0 18 ------- null}
h -t 0.19 -s 0 -d 2 -p cbr -e 500 -c 1 -i 36 -a 1 -x {0.0 3.0 -1 ------- null}
+ -t 0.19 -s 1 -d 2 -p cbr -e 500 -c 2 -i 37 -a 2 -x {1.0 3.0 18 ------- null}
- -t 0.19 -s 1 -d 2 -p cbr -e 500 -c 2 -i 37 -a 2 -x {1.0 3.0 18 ------- null}
h -t 0.19 -s 1 -d 2 -p cbr -e 500 -c 2 -i 37 -a 2 -x {1.0 3.0 -1 ------- null}
+ -t 0.195 -s 0 -d 2 -p cbr -e 500 -c 1 -i 38 -a 1 -x {0.0 3.0 19 ------- null}
- -t 0.195 -s 0 -d 2 -p cbr -e 500 -c 1 -i 38 -a 1 -x {0.0 3.0 19 ------- null}
h -t 0.195 -s 0 -d 2 -p cbr -e 500 -c 1 -i 38 -a 1 -x {0.0 3.0 -1 ------- null}
+ -t 0.195 -s 1 -d 2 -p cbr -e 500 -c 2 -i 39 -a 2 -x {1.0 3.0 19 ------- null}
- -t 0.195 -s 1 -d 2 -p cbr -e 500 -c 2 -i 39 -a 2 -x {1.0 3.0 19 ------- null}
h -t 0.195 -s 1 -d 2 -p cbr -e 500 -c 2 -i 39 -a 2 -x {1.0 3.0 -1 ------- null}
+ -t 0.2 -s 0 -d 2 -p cbr -e 500 -c 1 -i 40 -a 1 -x {0.0 3.0 20 ------- null}
- -t 0.2 -s 0 -d 2 -p cbr -e 500 -c 1 -i 40 -a 1 -x {0.0 3.0 20 ------- null}
h -t 0.2 -s 0 -d 2 -p cbr -e 500 -c 1 -i 40 -a 1 -x {0.0 3.0 -1 ------- null}
+ -t 0.2 -s 1 -d 2 -p cbr -e 500 -c 2 -i 41 -a 2 -x {1.0 3.0 20 ------- null}
- -t 0.2 -s 1 -d 2 -p cbr -e 500 -c 2 -i 41 -a 2 -x {1.0 3.0 20 ------- null}
h -t 0.2 -s 1 -d 2 -p cbr -e 500 -c 2 -i 41 -a 2 -x {1.0 3.0 -1 ------- null}
+ -t 0.205 -s 0 -d 2 -p cbr -e 500 -c 1 -i 42 -a 1 -x {0.0 3.0 21 ------- null}
- -t 0.205 -s 0 -d 2 -p cbr -e 500 -c 1 -i 42 -a 1 -x {0.0 3.0 21 ------- null}
h -t 0.205 -s 0 -d 2 -p cbr -e 500 -c 1 -i 42 -a 1 -x {0.0 3.0 -1 ------- null}
+ -t 0.205 -s 1 -d 2 -p cbr -e 500 -c 2 -i 43 -a 2 -x {1.0 3.0 21 ------- null}
- -t 0.205 -s 1 -d 2 -p cbr -e 500 -c 2 -i 43 -a 2 -x {1.0 3.0 21 ------- null}
h -t 0.205 -s 1 -d 2 -p cbr -e 500 -c 2 -i 43 -a 2 -x {1.0 3.0 -1 ------- null}
+ -t 0.21 -s 0 -d 2 -p cbr -e 500 -c 1 -i 44 -a 1 -x {0.0 3.0 22 ------- null}
- -t 0.21 -s 0 -d 2 -p cbr -e 500 -c 1 -i 44 -a 1 -x {0.0 3.0 22 ------- null}
h -t 0.21 -s 0 -d 2 -p cbr -e 500 -c 1 -i 44 -a 1 -x {0.0 3.0 -1 ------- null}
+ -t 0.21 -s 1 -d 2 -p cbr -e 500 -c 2 -i 45 -a 2 -x {1.0 3.0 22 ------- null}
- -t 0.21 -s 1 -d 2 -p cbr -e 500 -c 2 -i 45 -a 2 -x {1.0 3.0 22 ------- null}
h -t 0.21 -s 1 -d 2 -p cbr -e 500 -c 2 -i 45 -a 2 -x {1.0 3.0 -1 ------- null}
+ -t 0.215 -s 0 -d 2 -p cbr -e 500 -c 1 -i 46 -a 1 -x {0.0 3.0 23 ------- null}
- -t 0.215 -s 0 -d 2 -p cbr -e 500 -c 1 -i 46 -a 1 -x {0.0 3.0 23 ------- null}
h -t 0.215 -s 0 -d 2 -p cbr -e 500 -c 1 -i 46 -a 1 -x {0.0 3.0 -1 ------- null}
+ -t 0.215 -s 1 -d 2 -p cbr -e 500 -c 2 -i 47 -a 2 -x {1.0 3.0 23 ------- null}
- -t 0.215 -s 1 -d 2 -p cbr -e 500 -c 2 -i 47 -a 2 -x {1.0 3.0 23 ------- null}
h -t 0.215 -s 1 -d 2 -p cbr -e 500 -c 2 -i 47 -a 2 -x {1.0 3.0 -1 ------- null}
+ -t 0.22 -s 0 -d 2 -p cbr -e 500 -c 1 -i 48 -a 1 -x {0.0 3.0 24 ------- null}
- -t 0.22 -s 0 -d 2 -p cbr -e 500 -c 1 -i 48 -a 1 -x {0.0 3.0 24 ------- null}
h -t 0.22 -s 0 -d 2 -p cbr -e 500 -c 1 -i 48 -a 1 -x {0.0 3.0 -1 ------- null}
+ -t 0.22 -s 1 -d 2 -p cbr -e 500 -c 2 -i 49 -a 2 -x {1.0 3.0 24 ------- null}
- -t 0.22 -s 1 -d 2 -p cbr -e 500 -c 2 -i 49 -a 2 -x {1.0 3.0 24 ------- null}
h -t 0.22 -s 1 -d 2 -p cbr -e 500 -c 2 -i 49 -a 2 -x {1.0 3.0 -1 ------- null}
+ -t 0.225 -s 0 -d 2 -p cbr -e 500 -c 1 -i 50 -a 1 -x {0.0 3.0 25 ------- null}
- -t 0.225 -s 0 -d 2 -p cbr -e 500 -c 1 -i 50 -a 1 -x {0.0 3.0 25 ------- null}
h -t 0.225 -s 0 -d 2 -p cbr -e 500 -c 1 -i 50 -a 1 -x {0.0 3.0 -1 ------- null}
+ -t 0.225 -s 1 -d 2 -p cbr -e 500 -c 2 -i 51 -a 2 -x {1.0 3.0 25 ------- null}
- -t 0.225 -s 1 -d 2 -p cbr -e 500 -c 2 -i 51 -a 2 -x {1.0 3.0 25 ------- null}
h -t 0.225 -s 1 -d 2 -p cbr -e 500 -c 2 -i 51 -a 2 -x {1.0 3.0 -1 ------- null}
+ -t 0.23 -s 0 -d 2 -p cbr -e 500 -c 1 -i 52 -a 1 -x {0.0 3.0 26 ------- null}
- -t 0.23 -s 0 -d 2 -p cbr -e 500 -c 1 -i 52 -a 1 -x {0.0 3.0 26 ------- null}
h -t 0.23 -s 0 -d 2 -p cbr -e 500 -c 1 -i 52 -a 1 -x {0.0 3.0 -1 ------- null}
+ -t 0.23 -s 1 -d 2 -p cbr -e 500 -c 2 -i 53 -a 2 -x {1.0 3.0 26 ------- null}
- -t 0.23 -s 1 -d 2 -p cbr -e 500 -c 2 -i 53 -a 2 -x {1.0 3.0 26 ------- null}
h -t 0.23 -s 1 -d 2 -p cbr -e 500 -c 2 -i 53 -a 2 -x {1.0 3.0 -1 ------- null}
+ -t 0.235 -s 0 -d 2 -p cbr -e 500 -c 1 -i 54 -a 1 -x {0.0 3.0 27 ------- null}
- -t 0.235 -s 0 -d 2 -p cbr -e 500 -c 1 -i 54 -a 1 -x {0.0 3.0 27 ------- null}
h -t 0.235 -s 0 -d 2 -p cbr -e 500 -c 1 -i 54 -a 1 -x {0.0 3.0 -1 ------- null}
+ -t 0.235 -s 1 -d 2 -p cbr -e 500 -c 2 -i 55 -a 2 -x {1.0 3.0 27 ------- null}
- -t 0.235 -s 1 -d 2 -p cbr -e 500 -c 2 -i 55 -a 2 -x {1.0 3.0 27 ------- null}
h -t 0.235 -s 1 -d 2 -p cbr -e 500 -c 2 -i 55 -a 2 -x {1.0 3.0 -1 ------- null}
+ -t 0.24 -s 0 -d 2 -p cbr -e 500 -c 1 -i 56 -a 1 -x {0.0 3.0 28 ------- null}
- -t 0.24 -s 0 -d 2 -p cbr -e 500 -c 1 -i 56 -a 1 -x {0.0 3.0 28 ------- null}
h -t 0.24 -s 0 -d 2 -p cbr -e 500 -c 1 -i 56 -a 1 -x {0.0 3.0 -1 ------- null}
+ -t 0.24 -s 1 -d 2 -p cbr -e 500 -c 2 -i 57 -a 2 -x {1.0 3.0 28 ------- null}
- -t 0.24 -s 1 -d 2 -p cbr -e 500 -c 2 -i 57 -a 2 -x {1.0 3.0 28 ------- null}
h -t 0.24 -s 1 -d 2 -p cbr -e 500 -c 2 -i 57 -a 2 -x {1.0 3.0 -1 ------- null}
+ -t 0.245 -s 0 -d 2 -p cbr -e 500 -c 1 -i 58 -a 1 -x {0.0 3.0 29 ------- null}
- -t 0.245 -s 0 -d 2 -p cbr -e 500 -c 1 -i 58 -a 1 -x {0.0 3.0 29 ------- null}
h -t 0.245 -s 0 -d 2 -p cbr -e 500 -c 1 -i 58 -a 1 -x {0.0 3.0 -1 ------- null}
+ -t 0.245 -s 1 -d 2 -p cbr -e 500 -c 2 -i 59 -a 2 -x {1.0 3.0 29 ------- null}
- -t 0.245 -s 1 -d 2 -p cbr -e 500 -c 2 -i 59 -a 2 -x {1.0 3.0 29 ------- null}
h -t 0.245 -s 1 -d 2 -p cbr -e 500 -c 2 -i 59 -a 2 -x {1.0 3.0 -1 ------- null}
+ -t 0.25 -s 0 -d 2 -p cbr -e 500 -c 1 -i 60 -a 1 -x {0.0 3.0 30 ------- null}
- -t 0.25 -s 0 -d 2 -p cbr -e 500 -c 1 -i 60 -a 1 -x {0.0 3.0 30 ------- null}
h -t 0.25 -s 0 -d 2 -p cbr -e 500 -c 1 -i 60 -a 1 -x {0.0 3.0 -1 ------- null}
+ -t 0.25 -s 1 -d 2 -p cbr -e 500 -c 2 -i 61 -a 2 -x {1.0 3.0 30 ------- null}
- -t 0.25 -s 1 -d 2 -p cbr -e 500 -c 2 -i 61 -a 2 -x {1.0 3.0 30 ------- null}
h -t 0.25 -s 1 -d 2 -p cbr -e 500 -c 2 -i 61 -a 2 -x {1.0 3.0 -1 ------- null}
+ -t 0.255 -s 0 -d 2 -p cbr -e 500 -c 1 -i 62 -a 1 -x {0.0 3.0 31 ------- null}
- -t 0.255 -s 0 -d 2 -p cbr -e 500 -c 1 -i 62 -a 1 -x {0.0 3.0 31 ------- null}
h -t 0.255 -s 0 -d 2 -p cbr -e 500 -c 1 -i 62 -a 1 -x {0.0 3.0 -1 ------- null}
+ -t 0.255 -s 1 -d 2 -p cbr -e 500 -c 2 -i 63 -a 2 -x {1.0 3.0 31 ------- null}
- -t 0.255 -s 1 -d 2 -p cbr -e 500 -c 2 -i 63 -a 2 -x {1.0 3.0 31 ------- null}
h -t 0.255 -s 1 -d 2 -p cbr -e 500 -c 2 -i 63 -a 2 -x {1.0 3.0 -1 ------- null}
+ -t 0.26 -s 0 -d 2 -p cbr -e 500 -c 1 -i 64 -a 1 -x {0.0 3.0 32 ------- null}
- -t 0.26 -s 0 -d 2 -p cbr -e 500 -c 1 -i 64 -a 1 -x {0.0 3.0 32 ------- null}
h -t 0.26 -s 0 -d 2 -p cbr -e 500 -c 1 -i 64 -a 1 -x {0.0 3.0 -1 ------- null}
+ -t 0.26 -s 1 -d 2 -p cbr -e 500 -c 2 -i 65 -a 2 -x {1.0 3.0 32 ------- null}
- -t 0.26 -s 1 -d 2 -p cbr -e 500 -c 2 -i 65 -a 2 -x {1.0 3.0 32 ------- null}
h -t 0.26 -s 1 -d 2 -p cbr -e 500 -c 2 -i 65 -a 2 -x {1.0 3.0 -1 ------- null}
+ -t 0.265 -s 0 -d 2 -p cbr -e 500 -c 1 -i 66 -a 1 -x {0.0 3.0 33 ------- null}
- -t 0.265 -s 0 -d 2 -p cbr -e 500 -c 1 -i 66 -a 1 -x {0.0 3.0 33 ------- null}
h -t 0.265 -s 0 -d 2 -p cbr -e 500 -c 1 -i 66 -a 1 -x {0.0 3.0 -1 ------- null}
+ -t 0.265 -s 1 -d 2 -p cbr -e 500 -c 2 -i 67 -a 2 -x {1.0 3.0 33 ------- null}
- -t 0.265 -s 1 -d 2 -p cbr -e 500 -c 2 -i 67 -a 2 -x {1.0 3.0 33 ------- null}
h -t 0.265 -s 1 -d 2 -p cbr -e 500 -c 2 -i 67 -a 2 -x {1.0 3.0 -1 ------- null}
+ -t 0.27 -s 0 -d 2 -p cbr -e 500 -c 1 -i 68 -a 1 -x {0.0 3.0 34 ------- null}
- -t 0.27 -s 0 -d 2 -p cbr -e 500 -c 1 -i 68 -a 1 -x {0.0 3.0 34 ------- null}
h -t 0.27 -s 0 -d 2 -p cbr -e 500 -c 1 -i 68 -a 1 -x {0.0 3.0 -1 ------- null}
+ -t 0.27 -s 1 -d 2 -p cbr -e 500 -c 2 -i 69 -a 2 -x {1.0 3.0 34 ------- null}
- -t 0.27 -s 1 -d 2 -p cbr -e 500 -c 2 -i 69 -a 2 -x {1.0 3.0 34 ------- null}
h -t 0.27 -s 1 -d 2 -p cbr -e 500 -c 2 -i 69 -a 2 -x {1.0 3.0 -1 ------- null}
+ -t 0.275 -s 0 -d 2 -p cbr -e 500 -c 1 -i 70 -a 1 -x {0.0 3.0 35 ------- null}
- -t 0.275 -s 0 -d 2 -p cbr -e 500 -c 1 -i 70 -a 1 -x {0.0 3.0 35 ------- null}
h -t 0.275 -s 0 -d 2 -p cbr -e 500 -c 1 -i 70 -a 1 -x {0.0 3.0 -1 ------- null}
+ -t 0.275 -s 1 -d 2 -p cbr -e 500 -c 2 -i 71 -a 2 -x {1.0 3.0 35 ------- null}
- -t 0.275 -s 1 -d 2 -p cbr -e 500 -c 2 -i 71 -a 2 -x {1.0 3.0 35 ------- null}
h -t 0.275 -s 1 -d 2 -p cbr -e 500 -c 2 -i 71 -a 2 -x {1.0 3.0 -1 ------- null}
+ -t 0.28 -s 0 -d 2 -p cbr -e 500 -c 1 -i 72 -a 1 -x {0.0 3.0 36 ------- null}
- -t 0.28 -s 0 -d 2 -p cbr -e 500 -c 1 -i 72 -a 1 -x {0.0 3.0 36 ------- null}
h -t 0.28 -s 0 -d 2 -p cbr -e 500 -c 1 -i 72 -a 1 -x {0.0 3.0 -1 ------- null}
+ -t 0.28 -s 1 -d 2 -p cbr -e 500 -c 2 -i 73 -a 2 -x {1.0 3.0 36 ------- null}
- -t 0.28 -s 1 -d 2 -p cbr -e 500 -c 2 -i 73 -a 2 -x {1.0 3.0 36 ------- null}
h -t 0.28 -s 1 -d 2 -p cbr -e 500 -c 2 -i 73 -a 2 -x {1.0 3.0 -1 ------- null}
+ -t 0.285 -s 0 -d 2 -p cbr -e 500 -c 1 -i 74 -a 1 -x {0.0 3.0 37 ------- null}
- -t 0.285 -s 0 -d 2 -p cbr -e 500 -c 1 -i 74 -a 1 -x {0.0 3.0 37 ------- null}
h -t 0.285 -s 0 -d 2 -p cbr -e 500 -c 1 -i 74 -a 1 -x {0.0 3.0 -1 ------- null}
+ -t 0.285 -s 1 -d 2 -p cbr -e 500 -c 2 -i 75 -a 2 -x {1.0 3.0 37 ------- null}
- -t 0.285 -s 1 -d 2 -p cbr -e 500 -c 2 -i 75 -a 2 -x {1.0 3.0 37 ------- null}
h -t 0.285 -s 1 -d 2 -p cbr -e 500 -c 2 -i 75 -a 2 -x {1.0 3.0 -1 ------- null}
+ -t 0.29 -s 0 -d 2 -p cbr -e 500 -c 1 -i 76 -a 1 -x {0.0 3.0 38 ------- null}
- -t 0.29 -s 0 -d 2 -p cbr -e 500 -c 1 -i 76 -a 1 -x {0.0 3.0 38 ------- null}
h -t 0.29 -s 0 -d 2 -p cbr -e 500 -c 1 -i 76 -a 1 -x {0.0 3.0 -1 ------- null}
+ -t 0.29 -s 1 -d 2 -p cbr -e 500 -c 2 -i 77 -a 2 -x {1.0 3.0 38 ------- null}
- -t 0.29 -s 1 -d 2 -p cbr -e 500 -c 2 -i 77 -a 2 -x {1.0 3.0 38 ------- null}
h -t 0.29 -s 1 -d 2 -p cbr -e 500 -c 2 -i 77 -a 2 -x {1.0 3.0 -1 ------- null}
+ -t 0.295 -s 0 -d 2 -p cbr -e 500 -c 1 -i 78 -a 1 -x {0.0 3.0 39 ------- null}
- -t 0.295 -s 0 -d 2 -p cbr -e 500 -c 1 -i 78 -a 1 -x {0.0 3.0 39 ------- null}
h -t 0.295 -s 0 -d 2 -p cbr -e 500 -c 1 -i 78 -a 1 -x {0.0 3.0 -1 ------- null}
+ -t 0.295 -s 1 -d 2 -p cbr -e 500 -c 2 -i 79 -a 2 -x {1.0 3.0 39 ------- null}
- -t 0.295 -s 1 -d 2 -p cbr -e 500 -c 2 -i 79 -a 2 -x {1.0 3.0 39 ------- null}
h -t 0.295 -s 1 -d 2 -p cbr -e 500 -c 2 -i 79 -a 2 -x {1.0 3.0 -1 ------- null}
+ -t 0.3 -s 0 -d 2 -p cbr -e 500 -c 1 -i 80 -a 1 -x {0.0 3.0 40 ------- null}
- -t 0.3 -s 0 -d 2 -p cbr -e 500 -c 1 -i 80 -a 1 -x {0.0 3.0 40 ------- null}
h -t 0.3 -s 0 -d 2 -p cbr -e 500 -c 1 -i 80 -a 1 -x {0.0 3.0 -1 ------- null}
+ -t 0.3 -s 1 -d 2 -p cbr -e 500 -c 2 -i 81 -a 2 -x {1.0 3.0 40 ------- null}
- -t 0.3 -s 1 -d 2 -p cbr -e 500 -c 2 -i 81 -a 2 -x {1.0 3.0 40 ------- null}
h -t 0.3 -s 1 -d 2 -p cbr -e 500 -c 2 -i 81 -a 2 -x {1.0 3.0 -1 ------- null}
+ -t 0.305 -s 0 -d 2 -p cbr -e 500 -c 1 -i 82 -a 1 -x {0.0 3.0 41 ------- null}
- -t 0.305 -s 0 -d 2 -p cbr -e 500 -c 1 -i 82 -a 1 -x {0.0 3.0 41 ------- null}
h -t 0.305 -s 0 -d 2 -p cbr -e 500 -c 1 -i 82 -a 1 -x {0.0 3.0 -1 ------- null}
+ -t 0.305 -s 1 -d 2 -p cbr -e 500 -c 2 -i 83 -a 2 -x {1.0 3.0 41 ------- null}
- -t 0.305 -s 1 -d 2 -p cbr -e 500 -c 2 -i 83 -a 2 -x {1.0 3.0 41 ------- null}
h -t 0.305 -s 1 -d 2 -p cbr -e 500 -c 2 -i 83 -a 2 -x {1.0 3.0 -1 ------- null}
+ -t 0.31 -s 0 -d 2 -p cbr -e 500 -c 1 -i 84 -a 1 -x {0.0 3.0 42 ------- null}
- -t 0.31 -s 0 -d 2 -p cbr -e 500 -c 1 -i 84 -a 1 -x {0.0 3.0 42 ------- null}
h -t 0.31 -s 0 -d 2 -p cbr -e 500 -c 1 -i 84 -a 1 -x {0.0 3.0 -1 ------- null}
+ -t 0.31 -s 1 -d 2 -p cbr -e 500 -c 2 -i 85 -a 2 -x {1.0 3.0 42 ------- null}
- -t 0.31 -s 1 -d 2 -p cbr -e 500 -c 2 -i 85 -a 2 -x {1.0 3.0 42 ------- null}
h -t 0.31 -s 1 -d 2 -p cbr -e 500 -c 2 -i 85 -a 2 -x {1.0 3.0 -1 ------- null}
+ -t 0.315 -s 0 -d 2 -p cbr -e 500 -c 1 -i 86 -a 1 -x {0.0 3.0 43 ------- null}
- -t 0.315 -s 0 -d 2 -p cbr -e 500 -c 1 -i 86 -a 1 -x {0.0 3.0 43 ------- null}
h -t 0.315 -s 0 -d 2 -p cbr -e 500 -c 1 -i 86 -a 1 -x {0.0 3.0 -1 ------- null}
+ -t 0.315 -s 1 -d 2 -p cbr -e 500 -c 2 -i 87 -a 2 -x {1.0 3.0 43 ------- null}
- -t 0.315 -s 1 -d 2 -p cbr -e 500 -c 2 -i 87 -a 2 -x {1.0 3.0 43 ------- null}
h -t 0.315 -s 1 -d 2 -p cbr -e 500 -c 2 -i 87 -a 2 -x {1.0 3.0 -1 ------- null}
+ -t 0.32 -s 0 -d 2 -p cbr -e 500 -c 1 -i 88 -a 1 -x {0.0 3.0 44 ------- null}
- -t 0.32 -s 0 -d 2 -p cbr -e 500 -c 1 -i 88 -a 1 -x {0.0 3.0 44 ------- null}
h -t 0.32 -s 0 -d 2 -p cbr -e 500 -c 1 -i 88 -a 1 -x {0.0 3.0 -1 ------- null}
+ -t 0.32 -s 1 -d 2 -p cbr -e 500 -c 2 -i 89 -a 2 -x {1.0 3.0 44 ------- null}
- -t 0.32 -s 1 -d 2 -p cbr -e 500 -c 2 -i 89 -a 2 -x {1.0 3.0 44 ------- null}
h -t 0.32 -s 1 -d 2 -p cbr -e 500 -c 2 -i 89 -a 2 -x {1.0 3.0 -1 ------- null}
+ -t 0.325 -s 0 -d 2 -p cbr -e 500 -c 1 -i 90 -a 1 -x {0.0 3.0 45 ------- null}
- -t 0.325 -s 0 -d 2 -p cbr -e 500 -c 1 -i 90 -a 1 -x {0.0 3.0 45 ------- null}
h -t 0.325 -s 0 -d 2 -p cbr -e 500 -c 1 -i 90 -a 1 -x {0.0 3.0 -1 ------- null}
+ -t 0.325 -s 1 -d 2 -p cbr -e 500 -c 2 -i 91 -a 2 -x {1.0 3.0 45 ------- null}
- -t 0.325 -s 1 -d 2 -p cbr -e 500 -c 2 -i 91 -a 2 -x {1.0 3.0 45 ------- null}
h -t 0.325 -s 1 -d 2 -p cbr -e 500 -c 2 -i 91 -a 2 -x {1.0 3.0 -1 ------- null}
+ -t 0.33 -s 0 -d 2 -p cbr -e 500 -c 1 -i 92 -a 1 -x {0.0 3.0 46 ------- null}
- -t 0.33 -s 0 -d 2 -p cbr -e 500 -c 1 -i 92 -a 1 -x {0.0 3.0 46 ------- null}
h -t 0.33 -s 0 -d 2 -p cbr -e 500 -c 1 -i 92 -a 1 -x {0.0 3.0 -1 ------- null}
+ -t 0.33 -s 1 -d 2 -p cbr -e 500 -c 2 -i 93 -a 2 -x {1.0 3.0 46 ------- null}
- -t 0.33 -s 1 -d 2 -p cbr -e 500 -c 2 -i 93 -a 2 -x {1.0 3.0 46 ------- null}
h -t 0.33 -s 1 -d 2 -p cbr -e 500 -c 2 -i 93 -a 2 -x {1.0 3.0 -1 ------- null}
+ -t 0.335 -s 0 -d 2 -p cbr -e 500 -c 1 -i 94 -a 1 -x {0.0 3.0 47 ------- null}
- -t 0.335 -s 0 -d 2 -p cbr -e 500 -c 1 -i 94 -a 1 -x {0.0 3.0 47 ------- null}
h -t 0.335 -s 0 -d 2 -p cbr -e 500 -c 1 -i 94 -a 1 -x {0.0 3.0 -1 ------- null}
+ -t 0.335 -s 1 -d 2 -p cbr -e 500 -c 2 -i 95 -a 2 -x {1.0 3.0 47 ------- null}
- -t 0.335 -s 1 -d 2 -p cbr -e 500 -c 2 -i 95 -a 2 -x {1.0 3.0 47 ------- null}
h -t 0.335 -s 1 -d 2 -p cbr -e 500 -c 2 -i 95 -a 2 -x {1.0 3.0 -1 ------- null}
+ -t 0.34 -s 0 -d 2 -p cbr -e 500 -c 1 -i 96 -a 1 -x {0.0 3.0 48 ------- null}
- -t 0.34 -s 0 -d 2 -p cbr -e 500 -c 1 -i 96 -a 1 -x {0.0 3.0 48 ------- null}
h -t 0.34 -s 0 -d 2 -p cbr -e 500 -c 1 -i 96 -a 1 -x {0.0 3.0 -1 ------- null}
+ -t 0.34 -s 1 -d 2 -p cbr -e 500 -c 2 -i 97 -a 2 -x {1.0 3.0 48 ------- null}
- -t 0.34 -s 1 -d 2 -p cbr -e 500 -c 2 -i 97 -a 2 -x {1.0 3.0 48 ------- null}
h -t 0.34 -s 1 -d 2 -p cbr -e 500 -c 2 -i 97 -a 2 -x {1.0 3.0 -1 ------- null}
+ -t 0.345 -s 0 -d 2 -p cbr -e 500 -c 1 -i 98 -a 1 -x {0.0 3.0 49 ------- null}
- -t 0.345 -s 0 -d 2 -p cbr -e 500 -c 1 -i 98 -a 1 -x {0.0 3.0 49 ------- null}
h -t 0.345 -s 0 -d 2 -p cbr -e 500 -c 1 -i 98 -a 1 -x {0.0 3.0 -1 ------- null}
+ -t 0.345 -s 1 -d 2 -p cbr -e 500 -c 2 -i 99 -a 2 -x {1.0 3.0 49 ------- null}
- -t 0.345 -s 1 -d 2 -p cbr -e 500 -c 2 -i 99 -a 2 -x {1.0 3.0 49 ------- null}
h -t 0.345 -s 1 -d 2 -p cbr -e 500 -c 2 -i 99 -a 2 -x {1.0 3.0 -1 ------- null}
+ -t 0.35 -s 0 -d 2 -p cbr -e 500 -c 1 -i 100 -a 1 -x {0.0 3.0 50 ------- null}
- -t 0.35 -s 0 -d 2 -p cbr -e 500 -c 1 -i 100 -a 1 -x {0.0 3.0 50 ------- null}
h -t 0.35 -s 0 -d 2 -p cbr -e 500 -c 1 -i 100 -a 1 -x {0.0 3.0 -1 ------- null}
+ -t 0.35 -s 1 -d 2 -p cbr -e 500 -c 2 -i 101 -a 2 -x {1.0 3.0 50 ------- null}
- -t 0.35 -s 1 -d 2 -p cbr -e 500 -c 2 -i 101 -a 2 -x {1.0 3.0 50 ------- null}
h -t 0.35 -s 1 -d 2 -p cbr -e 500 -c 2 -i 101 -a 2 -x {1.0 3.0 -1 ------- null}
+ -t 0.355 -s 0 -d 2 -p cbr -e 500 -c 1 -i 102 -a 1 -x {0.0 3.0 51 ------- null}
- -t 0.355 -s 0 -d 2 -p cbr -e 500 -c 1 -i 102 -a 1 -x {0.0 3.0 51 ------- null}
h -t 0.355 -s 0 -d 2 -p cbr -e 500 -c 1 -i 102 -a 1 -x {0.0 3.0 -1 ------- null}
+ -t 0.355 -s 1 -d 2 -p cbr -e 500 -c 2 -i 103 -a 2 -x {1.0 3.0 51 ------- null}
- -t 0.355 -s 1 -d 2 -p cbr -e 500 -c 2 -i 103 -a 2 -x {1.0 3.0 51 ------- null}
h -t 0.355 -s 1 -d 2 -p cbr -e 500 -c 2 -i 103 -a 2 -x {1.0 3.0 -1 ------- null}
+ -t 0.36 -s 0 -d 2 -p cbr -e 500 -c 1 -i 104 -a 1 -x {0.0 3.0 52 ------- null}
- -t 0.36 -s 0 -d 2 -p cbr -e 500 -c 1 -i 104 -a 1 -x {0.0 3.0 52 ------- null}
h -t 0.36 -s 0 -d 2 -p cbr -e 500 -c 1 -i 104 -a 1 -x {0.0 3.0 -1 ------- null}
+ -t 0.36 -s 1 -d 2 -p cbr -e 500 -c 2 -i 105 -a 2 -x {1.0 3.0 52 ------- null}
- -t 0.36 -s 1 -d 2 -p cbr -e 500 -c 2 -i 105 -a 2 -x {1.0 3.0 52 ------- null}
h -t 0.36 -s 1 -d 2 -p cbr -e 500 -c 2 -i 105 -a 2 -x {1.0 3.0 -1 ------- null}
+ -t 0.365 -s 0 -d 2 -p cbr -e 500 -c 1 -i 106 -a 1 -x {0.0 3.0 53 ------- null}
- -t 0.365 -s 0 -d 2 -p cbr -e 500 -c 1 -i 106 -a 1 -x {0.0 3.0 53 ------- null}
h -t 0.365 -s 0 -d 2 -p cbr -e 500 -c 1 -i 106 -a 1 -x {0.0 3.0 -1 ------- null}
+ -t 0.365 -s 1 -d 2 -p cbr -e 500 -c 2 -i 107 -a 2 -x {1.0 3.0 53 ------- null}
- -t 0.365 -s 1 -d 2 -p cbr -e 500 -c 2 -i 107 -a 2 -x {1.0 3.0 53 ------- null}
h -t 0.365 -s 1 -d 2 -p cbr -e 500 -c 2 -i 107 -a 2 -x {1.0 3.0 -1 ------- null}
+ -t 0.37 -s 0 -d 2 -p cbr -e 500 -c 1 -i 108 -a 1 -x {0.0 3.0 54 ------- null}
- -t 0.37 -s 0 -d 2 -p cbr -e 500 -c 1 -i 108 -a 1 -x {0.0 3.0 54 ------- null}
h -t 0.37 -s 0 -d 2 -p cbr -e 500 -c 1 -i 108 -a 1 -x {0.0 3.0 -1 ------- null}
+ -t 0.37 -s 1 -d 2 -p cbr -e 500 -c 2 -i 109 -a 2 -x {1.0 3.0 54 ------- null}
- -t 0.37 -s 1 -d 2 -p cbr -e 500 -c 2 -i 109 -a 2 -x {1.0 3.0 54 ------- null}
h -t 0.37 -s 1 -d 2 -p cbr -e 500 -c 2 -i 109 -a 2 -x {1.0 3.0 -1 ------- null}
+ -t 0.375 -s 0 -d 2 -p cbr -e 500 -c 1 -i 110 -a 1 -x {0.0 3.0 55 ------- null}
- -t 0.375 -s 0 -d 2 -p cbr -e 500 -c 1 -i 110 -a 1 -x {0.0 3.0 55 ------- null}
h -t 0.375 -s 0 -d 2 -p cbr -e 500 -c 1 -i 110 -a 1 -x {0.0 3.0 -1 ------- null}
+ -t 0.375 -s 1 -d 2 -p cbr -e 500 -c 2 -i 111 -a 2 -x {1.0 3.0 55 ------- null}
- -t 0.375 -s 1 -d 2 -p cbr -e 500 -c 2 -i 111 -a 2 -x {1.0 3.0 55 ------- null}
h -t 0.375 -s 1 -d 2 -p cbr -e 500 -c 2 -i 111 -a 2 -x {1.0 3.0 -1 ------- null}
+ -t 0.38 -s 0 -d 2 -p cbr -e 500 -c 1 -i 112 -a 1 -x {0.0 3.0 56 ------- null}
- -t 0.38 -s 0 -d 2 -p cbr -e 500 -c 1 -i 112 -a 1 -x {0.0 3.0 56 ------- null}
h -t 0.38 -s 0 -d 2 -p cbr -e 500 -c 1 -i 112 -a 1 -x {0.0 3.0 -1 ------- null}
+ -t 0.38 -s 1 -d 2 -p cbr -e 500 -c 2 -i 113 -a 2 -x {1.0 3.0 56 ------- null}
- -t 0.38 -s 1 -d 2 -p cbr -e 500 -c 2 -i 113 -a 2 -x {1.0 3.0 56 ------- null}
h -t 0.38 -s 1 -d 2 -p cbr -e 500 -c 2 -i 113 -a 2 -x {1.0 3.0 -1 ------- null}
+ -t 0.385 -s 0 -d 2 -p cbr -e 500 -c 1 -i 114 -a 1 -x {0.0 3.0 57 ------- null}
- -t 0.385 -s 0 -d 2 -p cbr -e 500 -c 1 -i 114 -a 1 -x {0.0 3.0 57 ------- null}
h -t 0.385 -s 0 -d 2 -p cbr -e 500 -c 1 -i 114 -a 1 -x {0.0 3.0 -1 ------- null}
+ -t 0.385 -s 1 -d 2 -p cbr -e 500 -c 2 -i 115 -a 2 -x {1.0 3.0 57 ------- null}
- -t 0.385 -s 1 -d 2 -p cbr -e 500 -c 2 -i 115 -a 2 -x {1.0 3.0 57 ------- null}
h -t 0.385 -s 1 -d 2 -p cbr -e 500 -c 2 -i 115 -a 2 -x {1.0 3.0 -1 ------- null}
+ -t 0.39 -s 0 -d 2 -p cbr -e 500 -c 1 -i 116 -a 1 -x {0.0 3.0 58 ------- null}
- -t 0.39 -s 0 -d 2 -p cbr -e 500 -c 1 -i 116 -a 1 -x {0.0 3.0 58 ------- null}
h -t 0.39 -s 0 -d 2 -p cbr -e 500 -c 1 -i 116 -a 1 -x {0.0 3.0 -1 ------- null}
+ -t 0.39 -s 1 -d 2 -p cbr -e 500 -c 2 -i 117 -a 2 -x {1.0 3.0 58 ------- null}
- -t 0.39 -s 1 -d 2 -p cbr -e 500 -c 2 -i 117 -a 2 -x {1.0 3.0 58 ------- null}
h -t 0.39 -s 1 -d 2 -p cbr -e 500 -c 2 -i 117 -a 2 -x {1.0 3.0 -1 ------- null}
+ -t 0.395 -s 0 -d 2 -p cbr -e 500 -c 1 -i 118 -a 1 -x {0.0 3.0 59 ------- null}
- -t 0.395 -s 0 -d 2 -p cbr -e 500 -c 1 -i 118 -a 1 -x {0.0 3.0 59 ------- null}
h -t 0.395 -s 0 -d 2 -p cbr -e 500 -c 1 -i 118 -a 1 -x {0.0 3.0 -1 ------- null}
+ -t 0.395 -s 1 -d 2 -p cbr -e 500 -c 2 -i 119 -a 2 -x {1.0 3.0 59 ------- null}
- -t 0.395 -s 1 -d 2 -p cbr -e 500 -c 2 -i 119 -a 2 -x {1.0 3.0 59 ------- null}
h -t 0.395 -s 1 -d 2 -p cbr -e 500 -c 2 -i 119 -a 2 -x {1.0 3.0 -1 ------- null}
+ -t 0.4 -s 0 -d 2 -p cbr -e 500 -c 1 -i 120 -a 1 -x {0.0 3.0 60 ------- null}
- -t 0.4 -s 0 -d 2 -p cbr -e 500 -c 1 -i 120 -a 1 -x {0.0 3.0 60 ------- null}
h -t 0.4 -s 0 -d 2 -p cbr -e 500 -c 1 -i 120 -a 1 -x {0.0 3.0 -1 ------- null}
+ -t 0.4 -s 1 -d 2 -p cbr -e 500 -c 2 -i 121 -a 2 -x {1.0 3.0 60 ------- null}
- -t 0.4 -s 1 -d 2 -p cbr -e 500 -c 2 -i 121 -a 2 -x {1.0 3.0 60 ------- null}
h -t 0.4 -s 1 -d 2 -p cbr -e 500 -c 2 -i 121 -a 2 -x {1.0 3.0 -1 ------- null}
r -t 0.4004 -s 0 -d 2 -p cbr -e 500 -c 1 -i 0 -a 1 -x {0.0 3.0 0 ------- null}
+ -t 0.4004 -s 2 -d 3 -p cbr -e 500 -c 1 -i 0 -a 1 -x {0.0 3.0 0 ------- null}