+ 0.5 0 4 tcp 40 ------- 2 0.0 3.0 0 0
- 0.5 0 4 tcp 40 ------- 2 0.0 3.0 0 0
r 0.51032 0 4 tcp 40 ------- 2 0.0 3.0 0 0
+ 0.51032 4 3 tcp 40 ------- 2 0.0 3.0 0 0
- 0.51032 4 3 tcp 40 ------- 2 0.0 3.0 0 0
r 0.52064 4 3 tcp 40 ------- 2 0.0 3.0 0 0
+ 0.52064 3 4 ack 40 ------- 2 3.0 0.0 0 1
- 0.52064 3 4 ack 40 ------- 2 3.0 0.0 0 1
r 0.53096 3 4 ack 40 ------- 2 3.0 0.0 0 1
+ 0.53096 4 0 ack 40 ------- 2 3.0 0.0 0 1
- 0.53096 4 0 ack 40 ------- 2 3.0 0.0 0 1
r 0.54128 4 0 ack 40 ------- 2 3.0 0.0 0 1
+ 0.54128 0 4 tcp 1040 ------- 2 0.0 3.0 1 2
- 0.54128 0 4 tcp 1040 ------- 2 0.0 3.0 1 2
+ 0.54128 0 4 tcp 1040 ------- 2 0.0 3.0 2 3
- 0.5496 0 4 tcp 1040 ------- 2 0.0 3.0 2 3
r 0.5596 0 4 tcp 1040 ------- 2 0.0 3.0 1 2
+ 0.5596 4 3 tcp 1040 ------- 2 0.0 3.0 1 2
- 0.5596 4 3 tcp 1040 ------- 2 0.0 3.0 1 2
r 0.56792 0 4 tcp 1040 ------- 2 0.0 3.0 2 3
+ 0.56792 4 3 tcp 1040 ------- 2 0.0 3.0 2 3
- 0.56792 4 3 tcp 1040 ------- 2 0.0 3.0 2 3
r 0.57792 4 3 tcp 1040 ------- 2 0.0 3.0 1 2
+ 0.57792 3 4 ack 40 ------- 2 3.0 0.0 1 4
- 0.57792 3 4 ack 40 ------- 2 3.0 0.0 1 4
r 0.58624 4 3 tcp 1040 ------- 2 0.0 3.0 2 3
+ 0.58624 3 4 ack 40 ------- 2 3.0 0.0 2 5
- 0.58624 3 4 ack 40 ------- 2 3.0 0.0 2 5
r 0.58824 3 4 ack 40 ------- 2 3.0 0.0 1 4
+ 0.58824 4 0 ack 40 ------- 2 3.0 0.0 1 4
- 0.58824 4 0 ack 40 ------- 2 3.0 0.0 1 4
r 0.59656 3 4 ack 40 ------- 2 3.0 0.0 2 5
+ 0.59656 4 0 ack 40 ------- 2 3.0 0.0 2 5
- 0.59656 4 0 ack 40 ------- 2 3.0 0.0 2 5
r 0.59856 4 0 ack 40 ------- 2 3.0 0.0 1 4
+ 0.59856 0 4 tcp 1040 ------- 2 0.0 3.0 3 6
- 0.59856 0 4 tcp 1040 ------- 2 0.0 3.0 3 6
+ 0.59856 0 4 tcp 1040 ------- 2 0.0 3.0 4 7
r 0.60688 4 0 ack 40 ------- 2 3.0 0.0 2 5
+ 0.60688 0 4 tcp 1040 ------- 2 0.0 3.0 5 8
+ 0.60688 0 4 tcp 1040 ------- 2 0.0 3.0 6 9
- 0.60688 0 4 tcp 1040 ------- 2 0.0 3.0 4 7
- 0.6152 0 4 tcp 1040 ------- 2 0.0 3.0 5 8
r 0.61688 0 4 tcp 1040 ------- 2 0.0 3.0 3 6
+ 0.61688 4 3 tcp 1040 ------- 2 0.0 3.0 3 6
- 0.61688 4 3 tcp 1040 ------- 2 0.0 3.0 3 6
- 0.62352 0 4 tcp 1040 ------- 2 0.0 3.0 6 9
r 0.6252 0 4 tcp 1040 ------- 2 0.0 3.0 4 7
+ 0.6252 4 3 tcp 1040 ------- 2 0.0 3.0 4 7
- 0.6252 4 3 tcp 1040 ------- 2 0.0 3.0 4 7
r 0.63352 0 4 tcp 1040 ------- 2 0.0 3.0 5 8
+ 0.63352 4 3 tcp 1040 ------- 2 0.0 3.0 5 8
- 0.63352 4 3 tcp 1040 ------- 2 0.0 3.0 5 8
r 0.6352 4 3 tcp 1040 ------- 2 0.0 3.0 3 6
+ 0.6352 3 4 ack 40 ------- 2 3.0 0.0 3 10
- 0.6352 3 4 ack 40 ------- 2 3.0 0.0 3 10
r 0.64184 0 4 tcp 1040 ------- 2 0.0 3.0 6 9
+ 0.64184 4 3 tcp 1040 ------- 2 0.0 3.0 6 9
- 0.64184 4 3 tcp 1040 ------- 2 0.0 3.0 6 9
r 0.64352 4 3 tcp 1040 ------- 2 0.0 3.0 4 7
+ 0.64352 3 4 ack 40 ------- 2 3.0 0.0 4 11
- 0.64352 3 4 ack 40 ------- 2 3.0 0.0 4 11
r 0.64552 3 4 ack 40 ------- 2 3.0 0.0 3 10
+ 0.64552 4 0 ack 40 ------- 2 3.0 0.0 3 10
- 0.64552 4 0 ack 40 ------- 2 3.0 0.0 3 10
r 0.65184 4 3 tcp 1040 ------- 2 0.0 3.0 5 8
+ 0.65184 3 4 ack 40 ------- 2 3.0 0.0 5 12
- 0.65184 3 4 ack 40 ------- 2 3.0 0.0 5 12
r 0.65384 3 4 ack 40 ------- 2 3.0 0.0 4 11
+ 0.65384 4 0 ack 40 ------- 2 3.0 0.0 4 11
- 0.65384 4 0 ack 40 ------- 2 3.0 0.0 4 11
r 0.65584 4 0 ack 40 ------- 2 3.0 0.0 3 10
+ 0.65584 0 4 tcp 1040 ------- 2 0.0 3.0 7 13
- 0.65584 0 4 tcp 1040 ------- 2 0.0 3.0 7 13
+ 0.65584 0 4 tcp 1040 ------- 2 0.0 3.0 8 14
r 0.66016 4 3 tcp 1040 ------- 2 0.0 3.0 6 9
+ 0.66016 3 4 ack 40 ------- 2 3.0 0.0 6 15
- 0.66016 3 4 ack 40 ------- 2 3.0 0.0 6 15
r 0.66216 3 4 ack 40 ------- 2 3.0 0.0 5 12
+ 0.66216 4 0 ack 40 ------- 2 3.0 0.0 5 12
- 0.66216 4 0 ack 40 ------- 2 3.0 0.0 5 12
r 0.66416 4 0 ack 40 ------- 2 3.0 0.0 4 11
+ 0.66416 0 4 tcp 1040 ------- 2 0.0 3.0 9 16
+ 0.66416 0 4 tcp 1040 ------- 2 0.0 3.0 10 17
- 0.66416 0 4 tcp 1040 ------- 2 0.0 3.0 8 14
r 0.67048 3 4 ack 40 ------- 2 3.0 0.0 6 15
+ 0.67048 4 0 ack 40 ------- 2 3.0 0.0 6 15
- 0.67048 4 0 ack 40 ------- 2 3.0 0.0 6 15
r 0.67248 4 0 ack 40 ------- 2 3.0 0.0 5 12
+ 0.67248 0 4 tcp 1040 ------- 2 0.0 3.0 11 18
+ 0.67248 0 4 tcp 1040 ------- 2 0.0 3.0 12 19
- 0.67248 0 4 tcp 1040 ------- 2 0.0 3.0 9 16
r 0.67416 0 4 tcp 1040 ------- 2 0.0 3.0 7 13
+ 0.67416 4 3 tcp 1040 ------- 2 0.0 3.0 7 13
- 0.67416 4 3 tcp 1040 ------- 2 0.0 3.0 7 13
r 0.6808 4 0 ack 40 ------- 2 3.0 0.0 6 15
+ 0.6808 0 4 tcp 1040 ------- 2 0.0 3.0 13 20
+ 0.6808 0 4 tcp 1040 ------- 2 0.0 3.0 14 21
- 0.6808 0 4 tcp 1040 ------- 2 0.0 3.0 10 17
r 0.68248 0 4 tcp 1040 ------- 2 0.0 3.0 8 14
+ 0.68248 4 3 tcp 1040 ------- 2 0.0 3.0 8 14
- 0.68248 4 3 tcp 1040 ------- 2 0.0 3.0 8 14
- 0.68912 0 4 tcp 1040 ------- 2 0.0 3.0 11 18
r 0.6908 0 4 tcp 1040 ------- 2 0.0 3.0 9 16
+ 0.6908 4 3 tcp 1040 ------- 2 0.0 3.0 9 16
- 0.6908 4 3 tcp 1040 ------- 2 0.0 3.0 9 16
r 0.69248 4 3 tcp 1040 ------- 2 0.0 3.0 7 13
+ 0.69248 3 4 ack 40 ------- 2 3.0 0.0 7 22
- 0.69248 3 4 ack 40 ------- 2 3.0 0.0 7 22
- 0.69744 0 4 tcp 1040 ------- 2 0.0 3.0 12 19
r 0.69912 0 4 tcp 1040 ------- 2 0.0 3.0 10 17
+ 0.69912 4 3 tcp 1040 ------- 2 0.0 3.0 10 17
- 0.69912 4 3 tcp 1040 ------- 2 0.0 3.0 10 17
r 0.7008 4 3 tcp 1040 ------- 2 0.0 3.0 8 14
+ 0.7008 3 4 ack 40 ------- 2 3.0 0.0 8 23
- 0.7008 3 4 ack 40 ------- 2 3.0 0.0 8 23
r 0.7028 3 4 ack 40 ------- 2 3.0 0.0 7 22
+ 0.7028 4 0 ack 40 ------- 2 3.0 0.0 7 22
- 0.7028 4 0 ack 40 ------- 2 3.0 0.0 7 22
- 0.70576 0 4 tcp 1040 ------- 2 0.0 3.0 13 20
r 0.70744 0 4 tcp 1040 ------- 2 0.0 3.0 11 18
+ 0.70744 4 3 tcp 1040 ------- 2 0.0 3.0 11 18
- 0.70744 4 3 tcp 1040 ------- 2 0.0 3.0 11 18
r 0.70912 4 3 tcp 1040 ------- 2 0.0 3.0 9 16
+ 0.70912 3 4 ack 40 ------- 2 3.0 0.0 9 24
- 0.70912 3 4 ack 40 ------- 2 3.0 0.0 9 24
r 0.71112 3 4 ack 40 ------- 2 3.0 0.0 8 23
+ 0.71112 4 0 ack 40 ------- 2 3.0 0.0 8 23
- 0.71112 4 0 ack 40 ------- 2 3.0 0.0 8 23
r 0.71312 4 0 ack 40 ------- 2 3.0 0.0 7 22
+ 0.71312 0 4 tcp 1040 ------- 2 0.0 3.0 15 25
+ 0.71312 0 4 tcp 1040 ------- 2 0.0 3.0 16 26
- 0.71408 0 4 tcp 1040 ------- 2 0.0 3.0 14 21
r 0.71576 0 4 tcp 1040 ------- 2 0.0 3.0 12 19
+ 0.71576 4 3 tcp 1040 ------- 2 0.0 3.0 12 19
- 0.71576 4 3 tcp 1040 ------- 2 0.0 3.0 12 19
r 0.71744 4 3 tcp 1040 ------- 2 0.0 3.0 10 17
+ 0.71744 3 4 ack 40 ------- 2 3.0 0.0 10 27
- 0.71744 3 4 ack 40 ------- 2 3.0 0.0 10 27
r 0.71944 3 4 ack 40 ------- 2 3.0 0.0 9 24
+ 0.71944 4 0 ack 40 ------- 2 3.0 0.0 9 24
- 0.71944 4 0 ack 40 ------- 2 3.0 0.0 9 24
r 0.72144 4 0 ack 40 ------- 2 3.0 0.0 8 23
+ 0.72144 0 4 tcp 1040 ------- 2 0.0 3.0 17 28
+ 0.72144 0 4 tcp 1040 ------- 2 0.0 3.0 18 29
- 0.7224 0 4 tcp 1040 ------- 2 0.0 3.0 15 25
r 0.72408 0 4 tcp 1040 ------- 2 0.0 3.0 13 20
+ 0.72408 4 3 tcp 1040 ------- 2 0.0 3.0 13 20
- 0.72408 4 3 tcp 1040 ------- 2 0.0 3.0 13 20
r 0.72576 4 3 tcp 1040 ------- 2 0.0 3.0 11 18
+ 0.72576 3 4 ack 40 ------- 2 3.0 0.0 11 30
- 0.72576 3 4 ack 40 ------- 2 3.0 0.0 11 30
r 0.72776 3 4 ack 40 ------- 2 3.0 0.0 10 27
+ 0.72776 4 0 ack 40 ------- 2 3.0 0.0 10 27
- 0.72776 4 0 ack 40 ------- 2 3.0 0.0 10 27
r 0.72976 4 0 ack 40 ------- 2 3.0 0.0 9 24
+ 0.72976 0 4 tcp 1040 ------- 2 0.0 3.0 19 31
+ 0.72976 0 4 tcp 1040 ------- 2 0.0 3.0 20 32
- 0.73072 0 4 tcp 1040 ------- 2 0.0 3.0 16 26
r 0.7324 0 4 tcp 1040 ------- 2 0.0 3.0 14 21
+ 0.7324 4 3 tcp 1040 ------- 2 0.0 3.0 14 21
- 0.7324 4 3 tcp 1040 ------- 2 0.0 3.0 14 21
r 0.73408 4 3 tcp 1040 ------- 2 0.0 3.0 12 19
+ 0.73408 3 4 ack 40 ------- 2 3.0 0.0 12 33
- 0.73408 3 4 ack 40 ------- 2 3.0 0.0 12 33
r 0.73608 3 4 ack 40 ------- 2 3.0 0.0 11 30
+ 0.73608 4 0 ack 40 ------- 2 3.0 0.0 11 30
- 0.73608 4 0 ack 40 ------- 2 3.0 0.0 11 30
r 0.73808 4 0 ack 40 ------- 2 3.0 0.0 10 27
+ 0.73808 0 4 tcp 1040 ------- 2 0.0 3.0 21 34
+ 0.73808 0 4 tcp 1040 ------- 2 0.0 3.0 22 35
- 0.73904 0 4 tcp 1040 ------- 2 0.0 3.0 17 28
r 0.74072 0 4 tcp 1040 ------- 2 0.0 3.0 15 25
+ 0.74072 4 3 tcp 1040 ------- 2 0.0 3.0 15 25
- 0.74072 4 3 tcp 1040 ------- 2 0.0 3.0 15 25
r 0.7424 4 3 tcp 1040 ------- 2 0.0 3.0 13 20
+ 0.7424 3 4 ack 40 ------- 2 3.0 0.0 13 36
- 0.7424 3 4 ack 40 ------- 2 3.0 0.0 13 36
r 0.7444 3 4 ack 40 ------- 2 3.0 0.0 12 33
+ 0.7444 4 0 ack 40 ------- 2 3.0 0.0 12 33
- 0.7444 4 0 ack 40 ------- 2 3.0 0.0 12 33
r 0.7464 4 0 ack 40 ------- 2 3.0 0.0 11 30
+ 0.7464 0 4 tcp 1040 ------- 2 0.0 3.0 23 37
+ 0.7464 0 4 tcp 1040 ------- 2 0.0 3.0 24 38
- 0.74736 0 4 tcp 1040 ------- 2 0.0 3.0 18 29
r 0.74904 0 4 tcp 1040 ------- 2 0.0 3.0 16 26
+ 0.74904 4 3 tcp 1040 ------- 2 0.0 3.0 16 26
- 0.74904 4 3 tcp 1040 ------- 2 0.0 3.0 16 26
r 0.75072 4 3 tcp 1040 ------- 2 0.0 3.0 14 21
+ 0.75072 3 4 ack 40 ------- 2 3.0 0.0 14 39
- 0.75072 3 4 ack 40 ------- 2 3.0 0.0 14 39
r 0.75272 3 4 ack 40 ------- 2 3.0 0.0 13 36
+ 0.75272 4 0 ack 40 ------- 2 3.0 0.0 13 36
- 0.75272 4 0 ack 40 ------- 2 3.0 0.0 13 36
r 0.75472 4 0 ack 40 ------- 2 3.0 0.0 12 33
+ 0.75472 0 4 tcp 1040 ------- 2 0.0 3.0 25 40
+ 0.75472 0 4 tcp 1040 ------- 2 0.0 3.0 26 41
- 0.75568 0 4 tcp 1040 ------- 2 0.0 3.0 19 31
r 0.75736 0 4 tcp 1040 ------- 2 0.0 3.0 17 28
+ 0.75736 4 3 tcp 1040 ------- 2 0.0 3.0 17 28
- 0.75736 4 3 tcp 1040 ------- 2 0.0 3.0 17 28
r 0.75904 4 3 tcp 1040 ------- 2 0.0 3.0 15 25
+ 0.75904 3 4 ack 40 ------- 2 3.0 0.0 15 42
- 0.75904 3 4 ack 40 ------- 2 3.0 0.0 15 42
r 0.76104 3 4 ack 40 ------- 2 3.0 0.0 14 39
+ 0.76104 4 0 ack 40 ------- 2 3.0 0.0 14 39
- 0.76104 4 0 ack 40 ------- 2 3.0 0.0 14 39
r 0.76304 4 0 ack 40 ------- 2 3.0 0.0 13 36
+ 0.76304 0 4 tcp 1040 ------- 2 0.0 3.0 27 43
+ 0.76304 0 4 tcp 1040 ------- 2 0.0 3.0 28 44
- 0.764 0 4 tcp 1040 ------- 2 0.0 3.0 20 32
r 0.76568 0 4 tcp 1040 ------- 2 0.0 3.0 18 29
+ 0.76568 4 3 tcp 1040 ------- 2 0.0 3.0 18 29
- 0.76568 4 3 tcp 1040 ------- 2 0.0 3.0 18 29
r 0.76736 4 3 tcp 1040 ------- 2 0.0 3.0 16 26
+ 0.76736 3 4 ack 40 ------- 2 3.0 0.0 16 45
- 0.76736 3 4 ack 40 ------- 2 3.0 0.0 16 45
r 0.76936 3 4 ack 40 ------- 2 3.0 0.0 15 42
+ 0.76936 4 0 ack 40 ------- 2 3.0 0.0 15 42
- 0.76936 4 0 ack 40 ------- 2 3.0 0.0 15 42
r 0.77136 4 0 ack 40 ------- 2 3.0 0.0 14 39
+ 0.77136 0 4 tcp 1040 ------- 2 0.0 3.0 29 46
+ 0.77136 0 4 tcp 1040 ------- 2 0.0 3.0 30 47
- 0.77232 0 4 tcp 1040 ------- 2 0.0 3.0 21 34
r 0.774 0 4 tcp 1040 ------- 2 0.0 3.0 19 31
+ 0.774 4 3 tcp 1040 ------- 2 0.0 3.0 19 31
- 0.774 4 3 tcp 1040 ------- 2 0.0 3.0 19 31
r 0.77568 4 3 tcp 1040 ------- 2 0.0 3.0 17 28
+ 0.77568 3 4 ack 40 ------- 2 3.0 0.0 17 48
- 0.77568 3 4 ack 40 ------- 2 3.0 0.0 17 48
r 0.77768 3 4 ack 40 ------- 2 3.0 0.0 16 45
+ 0.77768 4 0 ack 40 ------- 2 3.0 0.0 16 45
- 0.77768 4 0 ack 40 ------- 2 3.0 0.0 16 45
r 0.77968 4 0 ack 40 ------- 2 3.0 0.0 15 42
+ 0.77968 0 4 tcp 1040 ------- 2 0.0 3.0 31 49
+ 0.77968 0 4 tcp 1040 ------- 2 0.0 3.0 32 50
- 0.78064 0 4 tcp 1040 ------- 2 0.0 3.0 22 35
r 0.78232 0 4 tcp 1040 ------- 2 0.0 3.0 20 32
+ 0.78232 4 3 tcp 1040 ------- 2 0.0 3.0 20 32
- 0.78232 4 3 tcp 1040 ------- 2 0.0 3.0 20 32
r 0.784 4 3 tcp 1040 ------- 2 0.0 3.0 18 29
+ 0.784 3 4 ack 40 ------- 2 3.0 0.0 18 51
- 0.784 3 4 ack 40 ------- 2 3.0 0.0 18 51
r 0.786 3 4 ack 40 ------- 2 3.0 0.0 17 48
+ 0.786 4 0 ack 40 ------- 2 3.0 0.0 17 48
- 0.786 4 0 ack 40 ------- 2 3.0 0.0 17 48
r 0.788 4 0 ack 40 ------- 2 3.0 0.0 16 45
+ 0.788 0 4 tcp 1040 ------- 2 0.0 3.0 33 52
+ 0.788 0 4 tcp 1040 ------- 2 0.0 3.0 34 53
- 0.78896 0 4 tcp 1040 ------- 2 0.0 3.0 23 37
r 0.79064 0 4 tcp 1040 ------- 2 0.0 3.0 21 34
+ 0.79064 4 3 tcp 1040 ------- 2 0.0 3.0 21 34
- 0.79064 4 3 tcp 1040 ------- 2 0.0 3.0 21 34
r 0.79232 4 3 tcp 1040 ------- 2 0.0 3.0 19 31
+ 0.79232 3 4 ack 40 ------- 2 3.0 0.0 19 54
- 0.79232 3 4 ack 40 ------- 2 3.0 0.0 19 54
r 0.79432 3 4 ack 40 ------- 2 3.0 0.0 18 51
+ 0.79432 4 0 ack 40 ------- 2 3.0 0.0 18 51
- 0.79432 4 0 ack 40 ------- 2 3.0 0.0 18 51
r 0.79632 4 0 ack 40 ------- 2 3.0 0.0 17 48
+ 0.79632 0 4 tcp 1040 ------- 2 0.0 3.0 35 55
+ 0.79632 0 4 tcp 1040 ------- 2 0.0 3.0 36 56
- 0.79728 0 4 tcp 1040 ------- 2 0.0 3.0 24 38
r 0.79896 0 4 tcp 1040 ------- 2 0.0 3.0 22 35
+ 0.79896 4 3 tcp 1040 ------- 2 0.0 3.0 22 35
- 0.79896 4 3 tcp 1040 ------- 2 0.0 3.0 22 35
r 0.80064 4 3 tcp 1040 ------- 2 0.0 3.0 20 32
+ 0.80064 3 4 ack 40 ------- 2 3.0 0.0 20 57
- 0.80064 3 4 ack 40 ------- 2 3.0 0.0 20 57
r 0.80264 3 4 ack 40 ------- 2 3.0 0.0 19 54
+ 0.80264 4 0 ack 40 ------- 2 3.0 0.0 19 54
- 0.80264 4 0 ack 40 ------- 2 3.0 0.0 19 54
r 0.80464 4 0 ack 40 ------- 2 3.0 0.0 18 51
+ 0.80464 0 4 tcp 1040 ------- 2 0.0 3.0 37 58
+ 0.80464 0 4 tcp 1040 ------- 2 0.0 3.0 38 59
- 0.8056 0 4 tcp 1040 ------- 2 0.0 3.0 25 40
r 0.80728 0 4 tcp 1040 ------- 2 0.0 3.0 23 37
+ 0.80728 4 3 tcp 1040 ------- 2 0.0 3.0 23 37
- 0.80728 4 3 tcp 1040 ------- 2 0.0 3.0 23 37
r 0.80896 4 3 tcp 1040 ------- 2 0.0 3.0 21 34
+ 0.80896 3 4 ack 40 ------- 2 3.0 0.0 21 60
- 0.80896 3 4 ack 40 ------- 2 3.0 0.0 21 60
r 0.81096 3 4 ack 40 ------- 2 3.0 0.0 20 57
+ 0.81096 4 0 ack 40 ------- 2 3.0 0.0 20 57
- 0.81096 4 0 ack 40 ------- 2 3.0 0.0 20 57
r 0.81296 4 0 ack 40 ------- 2 3.0 0.0 19 54
+ 0.81296 0 4 tcp 1040 ------- 2 0.0 3.0 39 61
- 0.81392 0 4 tcp 1040 ------- 2 0.0 3.0 26 41
r 0.8156 0 4 tcp 1040 ------- 2 0.0 3.0 24 38
+ 0.8156 4 3 tcp 1040 ------- 2 0.0 3.0 24 38
- 0.8156 4 3 tcp 1040 ------- 2 0.0 3.0 24 38
r 0.81728 4 3 tcp 1040 ------- 2 0.0 3.0 22 35
+ 0.81728 3 4 ack 40 ------- 2 3.0 0.0 22 62
- 0.81728 3 4 ack 40 ------- 2 3.0 0.0 22 62
r 0.81928 3 4 ack 40 ------- 2 3.0 0.0 21 60
+ 0.81928 4 0 ack 40 ------- 2 3.0 0.0 21 60
- 0.81928 4 0 ack 40 ------- 2 3.0 0.0 21 60
r 0.82128 4 0 ack 40 ------- 2 3.0 0.0 20 57
+ 0.82128 0 4 tcp 1040 ------- 2 0.0 3.0 40 63
- 0.82224 0 4 tcp 1040 ------- 2 0.0 3.0 27 43
r 0.82392 0 4 tcp 1040 ------- 2 0.0 3.0 25 40
+ 0.82392 4 3 tcp 1040 ------- 2 0.0 3.0 25 40
- 0.82392 4 3 tcp 1040 ------- 2 0.0 3.0 25 40
r 0.8256 4 3 tcp 1040 ------- 2 0.0 3.0 23 37
+ 0.8256 3 4 ack 40 ------- 2 3.0 0.0 23 64
- 0.8256 3 4 ack 40 ------- 2 3.0 0.0 23 64
r 0.8276 3 4 ack 40 ------- 2 3.0 0.0 22 62
+ 0.8276 4 0 ack 40 ------- 2 3.0 0.0 22 62
- 0.8276 4 0 ack 40 ------- 2 3.0 0.0 22 62
r 0.8296 4 0 ack 40 ------- 2 3.0 0.0 21 60
+ 0.8296 0 4 tcp 1040 ------- 2 0.0 3.0 41 65
- 0.83056 0 4 tcp 1040 ------- 2 0.0 3.0 28 44
r 0.83224 0 4 tcp 1040 ------- 2 0.0 3.0 26 41
+ 0.83224 4 3 tcp 1040 ------- 2 0.0 3.0 26 41
- 0.83224 4 3 tcp 1040 ------- 2 0.0 3.0 26 41
r 0.83392 4 3 tcp 1040 ------- 2 0.0 3.0 24 38
+ 0.83392 3 4 ack 40 ------- 2 3.0 0.0 24 66
- 0.83392 3 4 ack 40 ------- 2 3.0 0.0 24 66
r 0.83592 3 4 ack 40 ------- 2 3.0 0.0 23 64
+ 0.83592 4 0 ack 40 ------- 2 3.0 0.0 23 64
- 0.83592 4 0 ack 40 ------- 2 3.0 0.0 23 64
r 0.83792 4 0 ack 40 ------- 2 3.0 0.0 22 62
+ 0.83792 0 4 tcp 1040 ------- 2 0.0 3.0 42 67
- 0.83888 0 4 tcp 1040 ------- 2 0.0 3.0 29 46
r 0.84056 0 4 tcp 1040 ------- 2 0.0 3.0 27 43
+ 0.84056 4 3 tcp 1040 ------- 2 0.0 3.0 27 43
- 0.84056 4 3 tcp 1040 ------- 2 0.0 3.0 27 43
r 0.84224 4 3 tcp 1040 ------- 2 0.0 3.0 25 40
+ 0.84224 3 4 ack 40 ------- 2 3.0 0.0 25 68
- 0.84224 3 4 ack 40 ------- 2 3.0 0.0 25 68
r 0.84424 3 4 ack 40 ------- 2 3.0 0.0 24 66
+ 0.84424 4 0 ack 40 ------- 2 3.0 0.0 24 66
- 0.84424 4 0 ack 40 ------- 2 3.0 0.0 24 66
r 0.84624 4 0 ack 40 ------- 2 3.0 0.0 23 64
+ 0.84624 0 4 tcp 1040 ------- 2 0.0 3.0 43 69
- 0.8472 0 4 tcp 1040 ------- 2 0.0 3.0 30 47
r 0.84888 0 4 tcp 1040 ------- 2 0.0 3.0 28 44
+ 0.84888 4 3 tcp 1040 ------- 2 0.0 3.0 28 44
- 0.84888 4 3 tcp 1040 ------- 2 0.0 3.0 28 44
r 0.85056 4 3 tcp 1040 ------- 2 0.0 3.0 26 41
+ 0.85056 3 4 ack 40 ------- 2 3.0 0.0 26 70
- 0.85056 3 4 ack 40 ------- 2 3.0 0.0 26 70
r 0.85256 3 4 ack 40 ------- 2 3.0 0.0 25 68
+ 0.85256 4 0 ack 40 ------- 2 3.0 0.0 25 68
- 0.85256 4 0 ack 40 ------- 2 3.0 0.0 25 68
r 0.85456 4 0 ack 40 ------- 2 3.0 0.0 24 66
+ 0.85456 0 4 tcp 1040 ------- 2 0.0 3.0 44 71
- 0.85552 0 4 tcp 1040 ------- 2 0.0 3.0 31 49
r 0.8572 0 4 tcp 1040 ------- 2 0.0 3.0 29 46
+ 0.8572 4 3 tcp 1040 ------- 2 0.0 3.0 29 46
- 0.8572 4 3 tcp 1040 ------- 2 0.0 3.0 29 46
r 0.85888 4 3 tcp 1040 ------- 2 0.0 3.0 27 43
+ 0.85888 3 4 ack 40 ------- 2 3.0 0.0 27 72
- 0.85888 3 4 ack 40 ------- 2 3.0 0.0 27 72
r 0.86088 3 4 ack 40 ------- 2 3.0 0.0 26 70
+ 0.86088 4 0 ack 40 ------- 2 3.0 0.0 26 70
- 0.86088 4 0 ack 40 ------- 2 3.0 0.0 26 70
r 0.86288 4 0 ack 40 ------- 2 3.0 0.0 25 68
+ 0.86288 0 4 tcp 1040 ------- 2 0.0 3.0 45 73
- 0.86384 0 4 tcp 1040 ------- 2 0.0 3.0 32 50
r 0.86552 0 4 tcp 1040 ------- 2 0.0 3.0 30 47
+ 0.86552 4 3 tcp 1040 ------- 2 0.0 3.0 30 47
- 0.86552 4 3 tcp 1040 ------- 2 0.0 3.0 30 47
r 0.8672 4 3 tcp 1040 ------- 2 0.0 3.0 28 44
+ 0.8672 3 4 ack 40 ------- 2 3.0 0.0 28 74
- 0.8672 3 4 ack 40 ------- 2 3.0 0.0 28 74
r 0.8692 3 4 ack 40 ------- 2 3.0 0.0 27 72
+ 0.8692 4 0 ack 40 ------- 2 3.0 0.0 27 72
- 0.8692 4 0 ack 40 ------- 2 3.0 0.0 27 72
r 0.8712 4 0 ack 40 ------- 2 3.0 0.0 26 70
+ 0.8712 0 4 tcp 1040 ------- 2 0.0 3.0 46 75
- 0.87216 0 4 tcp 1040 ------- 2 0.0 3.0 33 52
r 0.87384 0 4 tcp 1040 ------- 2 0.0 3.0 31 49
+ 0.87384 4 3 tcp 1040 ------- 2 0.0 3.0 31 49
- 0.87384 4 3 tcp 1040 ------- 2 0.0 3.0 31 49
r 0.87552 4 3 tcp 1040 ------- 2 0.0 3.0 29 46
+ 0.87552 3 4 ack 40 ------- 2 3.0 0.0 29 76
- 0.87552 3 4 ack 40 ------- 2 3.0 0.0 29 76
r 0.87752 3 4 ack 40 ------- 2 3.0 0.0 28 74
+ 0.87752 4 0 ack 40 ------- 2 3.0 0.0 28 74
- 0.87752 4 0 ack 40 ------- 2 3.0 0.0 28 74
r 0.87952 4 0 ack 40 ------- 2 3.0 0.0 27 72
+ 0.87952 0 4 tcp 1040 ------- 2 0.0 3.0 47 77
- 0.88048 0 4 tcp 1040 ------- 2 0.0 3.0 34 53
r 0.88216 0 4 tcp 1040 ------- 2 0.0 3.0 32 50
+ 0.88216 4 3 tcp 1040 ------- 2 0.0 3.0 32 50
- 0.88216 4 3 tcp 1040 ------- 2 0.0 3.0 32 50
r 0.88384 4 3 tcp 1040 ------- 2 0.0 3.0 30 47
+ 0.88384 3 4 ack 40 ------- 2 3.0 0.0 30 78
- 0.88384 3 4 ack 40 ------- 2 3.0 0.0 30 78
r 0.88584 3 4 ack 40 ------- 2 3.0 0.0 29 76
+ 0.88584 4 0 ack 40 ------- 2 3.0 0.0 29 76
- 0.88584 4 0 ack 40 ------- 2 3.0 0.0 29 76
r 0.88784 4 0 ack 40 ------- 2 3.0 0.0 28 74
+ 0.88784 0 4 tcp 1040 ------- 2 0.0 3.0 48 79
- 0.8888 0 4 tcp 1040 ------- 2 0.0 3.0 35 55
r 0.89048 0 4 tcp 1040 ------- 2 0.0 3.0 33 52
+ 0.89048 4 3 tcp 1040 ------- 2 0.0 3.0 33 52
- 0.89048 4 3 tcp 1040 ------- 2 0.0 3.0 33 52
r 0.89216 4 3 tcp 1040 ------- 2 0.0 3.0 31 49
+ 0.89216 3 4 ack 40 ------- 2 3.0 0.0 31 80
- 0.89216 3 4 ack 40 ------- 2 3.0 0.0 31 80
r 0.89416 3 4 ack 40 ------- 2 3.0 0.0 30 78
+ 0.89416 4 0 ack 40 ------- 2 3.0 0.0 30 78
- 0.89416 4 0 ack 40 ------- 2 3.0 0.0 30 78
r 0.89616 4 0 ack 40 ------- 2 3.0 0.0 29 76
+ 0.89616 0 4 tcp 1040 ------- 2 0.0 3.0 49 81
- 0.89712 0 4 tcp 1040 ------- 2 0.0 3.0 36 56
r 0.8988 0 4 tcp 1040 ------- 2 0.0 3.0 34 53
+ 0.8988 4 3 tcp 1040 ------- 2 0.0 3.0 34 53
- 0.8988 4 3 tcp 1040 ------- 2 0.0 3.0 34 53
r 0.90048 4 3 tcp 1040 ------- 2 0.0 3.0 32 50
+ 0.90048 3 4 ack 40 ------- 2 3.0 0.0 32 82
- 0.90048 3 4 ack 40 ------- 2 3.0 0.0 32 82
r 0.90248 3 4 ack 40 ------- 2 3.0 0.0 31 80
+ 0.90248 4 0 ack 40 ------- 2 3.0 0.0 31 80
- 0.90248 4 0 ack 40 ------- 2 3.0 0.0 31 80
r 0.90448 4 0 ack 40 ------- 2 3.0 0.0 30 78
+ 0.90448 0 4 tcp 1040 ------- 2 0.0 3.0 50 83
- 0.90544 0 4 tcp 1040 ------- 2 0.0 3.0 37 58
r 0.90712 0 4 tcp 1040 ------- 2 0.0 3.0 35 55
+ 0.90712 4 3 tcp 1040 ------- 2 0.0 3.0 35 55
- 0.90712 4 3 tcp 1040 ------- 2 0.0 3.0 35 55
r 0.9088 4 3 tcp 1040 ------- 2 0.0 3.0 33 52
+ 0.9088 3 4 ack 40 ------- 2 3.0 0.0 33 84
- 0.9088 3 4 ack 40 ------- 2 3.0 0.0 33 84
r 0.9108 3 4 ack 40 ------- 2 3.0 0.0 32 82
+ 0.9108 4 0 ack 40 ------- 2 3.0 0.0 32 82
- 0.9108 4 0 ack 40 ------- 2 3.0 0.0 32 82
r 0.9128 4 0 ack 40 ------- 2 3.0 0.0 31 80
+ 0.9128 0 4 tcp 1040 ------- 2 0.0 3.0 51 85
- 0.91376 0 4 tcp 1040 ------- 2 0.0 3.0 38 59
r 0.91544 0 4 tcp 1040 ------- 2 0.0 3.0 36 56
+ 0.91544 4 3 tcp 1040 ------- 2 0.0 3.0 36 56
- 0.91544 4 3 tcp 1040 ------- 2 0.0 3.0 36 56
r 0.91712 4 3 tcp 1040 ------- 2 0.0 3.0 34 53
+ 0.91712 3 4 ack 40 ------- 2 3.0 0.0 34 86
- 0.91712 3 4 ack 40 ------- 2 3.0 0.0 34 86
r 0.91912 3 4 ack 40 ------- 2 3.0 0.0 33 84
+ 0.91912 4 0 ack 40 ------- 2 3.0 0.0 33 84
- 0.91912 4 0 ack 40 ------- 2 3.0 0.0 33 84
r 0.92112 4 0 ack 40 ------- 2 3.0 0.0 32 82
+ 0.92112 0 4 tcp 1040 ------- 2 0.0 3.0 52 87
- 0.92208 0 4 tcp 1040 ------- 2 0.0 3.0 39 61
r 0.92376 0 4 tcp 1040 ------- 2 0.0 3.0 37 58
+ 0.92376 4 3 tcp 1040 ------- 2 0.0 3.0 37 58
- 0.92376 4 3 tcp 1040 ------- 2 0.0 3.0 37 58
r 0.92544 4 3 tcp 1040 ------- 2 0.0 3.0 35 55
+ 0.92544 3 4 ack 40 ------- 2 3.0 0.0 35 88
- 0.92544 3 4 ack 40 ------- 2 3.0 0.0 35 88
r 0.92744 3 4 ack 40 ------- 2 3.0 0.0 34 86
+ 0.92744 4 0 ack 40 ------- 2 3.0 0.0 34 86
- 0.92744 4 0 ack 40 ------- 2 3.0 0.0 34 86
r 0.92944 4 0 ack 40 ------- 2 3.0 0.0 33 84
+ 0.92944 0 4 tcp 1040 ------- 2 0.0 3.0 53 89
- 0.9304 0 4 tcp 1040 ------- 2 0.0 3.0 40 63
r 0.93208 0 4 tcp 1040 ------- 2 0.0 3.0 38 59
+ 0.93208 4 3 tcp 1040 ------- 2 0.0 3.0 38 59
- 0.93208 4 3 tcp 1040 ------- 2 0.0 3.0 38 59
r 0.93376 4 3 tcp 1040 ------- 2 0.0 3.0 36 56
+ 0.93376 3 4 ack 40 ------- 2 3.0 0.0 36 90
- 0.93376 3 4 ack 40 ------- 2 3.0 0.0 36 90
r 0.93576 3 4 ack 40 ------- 2 3.0 0.0 35 88
+ 0.93576 4 0 ack 40 ------- 2 3.0 0.0 35 88
- 0.93576 4 0 ack 40 ------- 2 3.0 0.0 35 88
r 0.93776 4 0 ack 40 ------- 2 3.0 0.0 34 86
+ 0.93776 0 4 tcp 1040 ------- 2 0.0 3.0 54 91
- 0.93872 0 4 tcp 1040 ------- 2 0.0 3.0 41 65
r 0.9404 0 4 tcp 1040 ------- 2 0.0 3.0 39 61
+ 0.9404 4 3 tcp 1040 ------- 2 0.0 3.0 39 61
- 0.9404 4 3 tcp 1040 ------- 2 0.0 3.0 39 61
r 0.94208 4 3 tcp 1040 ------- 2 0.0 3.0 37 58
+ 0.94208 3 4 ack 40 ------- 2 3.0 0.0 37 92
- 0.94208 3 4 ack 40 ------- 2 3.0 0.0 37 92
r 0.94408 3 4 ack 40 ------- 2 3.0 0.0 36 90
+ 0.94408 4 0 ack 40 ------- 2 3.0 0.0 36 90
- 0.94408 4 0 ack 40 ------- 2 3.0 0.0 36 90
r 0.94608 4 0 ack 40 ------- 2 3.0 0.0 35 88
+ 0.94608 0 4 tcp 1040 ------- 2 0.0 3.0 55 93
- 0.94704 0 4 tcp 1040 ------- 2 0.0 3.0 42 67
r 0.94872 0 4 tcp 1040 ------- 2 0.0 3.0 40 63
+ 0.94872 4 3 tcp 1040 ------- 2 0.0 3.0 40 63
- 0.94872 4 3 tcp 1040 ------- 2 0.0 3.0 40 63
r 0.9504 4 3 tcp 1040 ------- 2 0.0 3.0 38 59
+ 0.9504 3 4 ack 40 ------- 2 3.0 0.0 38 94
- 0.9504 3 4 ack 40 ------- 2 3.0 0.0 38 94
r 0.9524 3 4 ack 40 ------- 2 3.0 0.0 37 92
+ 0.9524 4 0 ack 40 ------- 2 3.0 0.0 37 92
- 0.9524 4 0 ack 40 ------- 2 3.0 0.0 37 92
r 0.9544 4 0 ack 40 ------- 2 3.0 0.0 36 90
+ 0.9544 0 4 tcp 1040 ------- 2 0.0 3.0 56 95
- 0.95536 0 4 tcp 1040 ------- 2 0.0 3.0 43 69
r 0.95704 0 4 tcp 1040 ------- 2 0.0 3.0 41 65
+ 0.95704 4 3 tcp 1040 ------- 2 0.0 3.0 41 65
- 0.95704 4 3 tcp 1040 ------- 2 0.0 3.0 41 65
r 0.95872 4 3 tcp 1040 ------- 2 0.0 3.0 39 61
+ 0.95872 3 4 ack 40 ------- 2 3.0 0.0 39 96
- 0.95872 3 4 ack 40 ------- 2 3.0 0.0 39 96
r 0.96072 3 4 ack 40 ------- 2 3.0 0.0 38 94
+ 0.96072 4 0 ack 40 ------- 2 3.0 0.0 38 94
- 0.96072 4 0 ack 40 ------- 2 3.0 0.0 38 94
r 0.96272 4 0 ack 40 ------- 2 3.0 0.0 37 92
+ 0.96272 0 4 tcp 1040 ------- 2 0.0 3.0 57 97
- 0.96368 0 4 tcp 1040 ------- 2 0.0 3.0 44 71
r 0.96536 0 4 tcp 1040 ------- 2 0.0 3.0 42 67
+ 0.96536 4 3 tcp 1040 ------- 2 0.0 3.0 42 67
- 0.96536 4 3 tcp 1040 ------- 2 0.0 3.0 42 67
r 0.96704 4 3 tcp 1040 ------- 2 0.0 3.0 40 63
+ 0.96704 3 4 ack 40 ------- 2 3.0 0.0 40 98
- 0.96704 3 4 ack 40 ------- 2 3.0 0.0 40 98
r 0.96904 3 4 ack 40 ------- 2 3.0 0.0 39 96
+ 0.96904 4 0 ack 40 ------- 2 3.0 0.0 39 96
- 0.96904 4 0 ack 40 ------- 2 3.0 0.0 39 96
r 0.97104 4 0 ack 40 ------- 2 3.0 0.0 38 94
+ 0.97104 0 4 tcp 1040 ------- 2 0.0 3.0 58 99
- 0.972 0 4 tcp 1040 ------- 2 0.0 3.0 45 73
r 0.97368 0 4 tcp 1040 ------- 2 0.0 3.0 43 69
+ 0.97368 4 3 tcp 1040 ------- 2 0.0 3.0 43 69
- 0.97368 4 3 tcp 1040 ------- 2 0.0 3.0 43 69
r 0.97536 4 3 tcp 1040 ------- 2 0.0 3.0 41 65
+ 0.97536 3 4 ack 40 ------- 2 3.0 0.0 41 100
- 0.97536 3 4 ack 40 ------- 2 3.0 0.0 41 100
r 0.97736 3 4 ack 40 ------- 2 3.0 0.0 40 98
+ 0.97736 4 0 ack 40 ------- 2 3.0 0.0 40 98
- 0.97736 4 0 ack 40 ------- 2 3.0 0.0 40 98
r 0.97936 4 0 ack 40 ------- 2 3.0 0.0 39 96
+ 0.97936 0 4 tcp 1040 ------- 2 0.0 3.0 59 101
- 0.98032 0 4 tcp 1040 ------- 2 0.0 3.0 46 75
r 0.982 0 4 tcp 1040 ------- 2 0.0 3.0 44 71
+ 0.982 4 3 tcp 1040 ------- 2 0.0 3.0 44 71
- 0.982 4 3 tcp 1040 ------- 2 0.0 3.0 44 71
r 0.98368 4 3 tcp 1040 ------- 2 0.0 3.0 42 67
+ 0.98368 3 4 ack 40 ------- 2 3.0 0.0 42 102
- 0.98368 3 4 ack 40 ------- 2 3.0 0.0 42 102
r 0.98568 3 4 ack 40 ------- 2 3.0 0.0 41 100
+ 0.98568 4 0 ack 40 ------- 2 3.0 0.0 41 100
- 0.98568 4 0 ack 40 ------- 2 3.0 0.0 41 100
r 0.98768 4 0 ack 40 ------- 2 3.0 0.0 40 98
+ 0.98768 0 4 tcp 1040 ------- 2 0.0 3.0 60 103
- 0.98864 0 4 tcp 1040 ------- 2 0.0 3.0 47 77
r 0.99032 0 4 tcp 1040 ------- 2 0.0 3.0 45 73
+ 0.99032 4 3 tcp 1040 ------- 2 0.0 3.0 45 73
- 0.99032 4 3 tcp 1040 ------- 2 0.0 3.0 45 73
r 0.992 4 3 tcp 1040 ------- 2 0.0 3.0 43 69
+ 0.992 3 4 ack 40 ------- 2 3.0 0.0 43 104
- 0.992 3 4 ack 40 ------- 2 3.0 0.0 43 104
r 0.994 3 4 ack 40 ------- 2 3.0 0.0 42 102
+ 0.994 4 0 ack 40 ------- 2 3.0 0.0 42 102
- 0.994 4 0 ack 40 ------- 2 3.0 0.0 42 102
r 0.996 4 0 ack 40 ------- 2 3.0 0.0 41 100
+ 0.996 0 4 tcp 1040 ------- 2 0.0 3.0 61 105
- 0.99696 0 4 tcp 1040 ------- 2 0.0 3.0 48 79
r 0.99864 0 4 tcp 1040 ------- 2 0.0 3.0 46 75
+ 0.99864 4 3 tcp 1040 ------- 2 0.0 3.0 46 75
- 0.99864 4 3 tcp 1040 ------- 2 0.0 3.0 46 75
+ 1 1 4 cbr 210 ------- 1 1.0 2.0 0 106
- 1 1 4 cbr 210 ------- 1 1.0 2.0 0 106
r 1.00032 4 3 tcp 1040 ------- 2 0.0 3.0 44 71
+ 1.00032 3 4 ack 40 ------- 2 3.0 0.0 44 107
- 1.00032 3 4 ack 40 ------- 2 3.0 0.0 44 107
r 1.00232 3 4 ack 40 ------- 2 3.0 0.0 43 104
+ 1.00232 4 0 ack 40 ------- 2 3.0 0.0 43 104
- 1.00232 4 0 ack 40 ------- 2 3.0 0.0 43 104
r 1.00432 4 0 ack 40 ------- 2 3.0 0.0 42 102
+ 1.00432 0 4 tcp 1040 ------- 2 0.0 3.0 62 108
- 1.00528 0 4 tcp 1040 ------- 2 0.0 3.0 49 81
r 1.00696 0 4 tcp 1040 ------- 2 0.0 3.0 47 77
+ 1.00696 4 3 tcp 1040 ------- 2 0.0 3.0 47 77
- 1.00696 4 3 tcp 1040 ------- 2 0.0 3.0 47 77
r 1.00864 4 3 tcp 1040 ------- 2 0.0 3.0 45 73
+ 1.00864 3 4 ack 40 ------- 2 3.0 0.0 45 109
- 1.00864 3 4 ack 40 ------- 2 3.0 0.0 45 109
+ 1.01 1 4 cbr 210 ------- 1 1.0 2.0 1 110
- 1.01 1 4 cbr 210 ------- 1 1.0 2.0 1 110
r 1.01064 3 4 ack 40 ------- 2 3.0 0.0 44 107
+ 1.01064 4 0 ack 40 ------- 2 3.0 0.0 44 107
- 1.01064 4 0 ack 40 ------- 2 3.0 0.0 44 107
r 1.01168 1 4 cbr 210 ------- 1 1.0 2.0 0 106
+ 1.01168 4 2 cbr 210 ------- 1 1.0 2.0 0 106
- 1.01168 4 2 cbr 210 ------- 1 1.0 2.0 0 106
r 1.01264 4 0 ack 40 ------- 2 3.0 0.0 43 104
+ 1.01264 0 4 tcp 1040 ------- 2 0.0 3.0 63 111
- 1.0136 0 4 tcp 1040 ------- 2 0.0 3.0 50 83
r 1.01528 0 4 tcp 1040 ------- 2 0.0 3.0 48 79
+ 1.01528 4 3 tcp 1040 ------- 2 0.0 3.0 48 79
- 1.01528 4 3 tcp 1040 ------- 2 0.0 3.0 48 79
r 1.01696 4 3 tcp 1040 ------- 2 0.0 3.0 46 75
+ 1.01696 3 4 ack 40 ------- 2 3.0 0.0 46 112
- 1.01696 3 4 ack 40 ------- 2 3.0 0.0 46 112
r 1.01896 3 4 ack 40 ------- 2 3.0 0.0 45 109
+ 1.01896 4 0 ack 40 ------- 2 3.0 0.0 45 109
- 1.01896 4 0 ack 40 ------- 2 3.0 0.0 45 109
+ 1.02 1 4 cbr 210 ------- 1 1.0 2.0 2 113
- 1.02 1 4 cbr 210 ------- 1 1.0 2.0 2 113
r 1.02096 4 0 ack 40 ------- 2 3.0 0.0 44 107
+ 1.02096 0 4 tcp 1040 ------- 2 0.0 3.0 64 114
r 1.02168 1 4 cbr 210 ------- 1 1.0 2.0 1 110
+ 1.02168 4 2 cbr 210 ------- 1 1.0 2.0 1 110
- 1.02168 4 2 cbr 210 ------- 1 1.0 2.0 1 110
- 1.02192 0 4 tcp 1040 ------- 2 0.0 3.0 51 85
r 1.02336 4 2 cbr 210 ------- 1 1.0 2.0 0 106
r 1.0236 0 4 tcp 1040 ------- 2 0.0 3.0 49 81
+ 1.0236 4 3 tcp 1040 ------- 2 0.0 3.0 49 81
- 1.0236 4 3 tcp 1040 ------- 2 0.0 3.0 49 81
r 1.02528 4 3 tcp 1040 ------- 2 0.0 3.0 47 77
+ 1.02528 3 4 ack 40 ------- 2 3.0 0.0 47 115
- 1.02528 3 4 ack 40 ------- 2 3.0 0.0 47 115
r 1.02728 3 4 ack 40 ------- 2 3.0 0.0 46 112
+ 1.02728 4 0 ack 40 ------- 2 3.0 0.0 46 112
- 1.02728 4 0 ack 40 ------- 2 3.0 0.0 46 112
r 1.02928 4 0 ack 40 ------- 2 3.0 0.0 45 109
+ 1.02928 0 4 tcp 1040 ------- 2 0.0 3.0 65 116
+ 1.03 1 4 cbr 210 ------- 1 1.0 2.0 3 117
- 1.03 1 4 cbr 210 ------- 1 1.0 2.0 3 117
- 1.03024 0 4 tcp 1040 ------- 2 0.0 3.0 52 87
r 1.03168 1 4 cbr 210 ------- 1 1.0 2.0 2 113
+ 1.03168 4 2 cbr 210 ------- 1 1.0 2.0 2 113
- 1.03168 4 2 cbr 210 ------- 1 1.0 2.0 2 113
r 1.03192 0 4 tcp 1040 ------- 2 0.0 3.0 50 83
+ 1.03192 4 3 tcp 1040 ------- 2 0.0 3.0 50 83
- 1.03192 4 3 tcp 1040 ------- 2 0.0 3.0 50 83
r 1.03336 4 2 cbr 210 ------- 1 1.0 2.0 1 110
r 1.0336 4 3 tcp 1040 ------- 2 0.0 3.0 48 79
+ 1.0336 3 4 ack 40 ------- 2 3.0 0.0 48 118
- 1.0336 3 4 ack 40 ------- 2 3.0 0.0 48 118
r 1.0356 3 4 ack 40 ------- 2 3.0 0.0 47 115
+ 1.0356 4 0 ack 40 ------- 2 3.0 0.0 47 115
- 1.0356 4 0 ack 40 ------- 2 3.0 0.0 47 115
r 1.0376 4 0 ack 40 ------- 2 3.0 0.0 46 112
+ 1.0376 0 4 tcp 1040 ------- 2 0.0 3.0 66 119
- 1.03856 0 4 tcp 1040 ------- 2 0.0 3.0 53 89
+ 1.04 1 4 cbr 210 ------- 1 1.0 2.0 4 120
- 1.04 1 4 cbr 210 ------- 1 1.0 2.0 4 120
r 1.04024 0 4 tcp 1040 ------- 2 0.0 3.0 51 85
+ 1.04024 4 3 tcp 1040 ------- 2 0.0 3.0 51 85
- 1.04024 4 3 tcp 1040 ------- 2 0.0 3.0 51 85
r 1.04168 1 4 cbr 210 ------- 1 1.0 2.0 3 117
+ 1.04168 4 2 cbr 210 ------- 1 1.0 2.0 3 117
- 1.04168 4 2 cbr 210 ------- 1 1.0 2.0 3 117
r 1.04192 4 3 tcp 1040 ------- 2 0.0 3.0 49 81
+ 1.04192 3 4 ack 40 ------- 2 3.0 0.0 49 121
- 1.04192 3 4 ack 40 ------- 2 3.0 0.0 49 121
r 1.04336 4 2 cbr 210 ------- 1 1.0 2.0 2 113
r 1.04392 3 4 ack 40 ------- 2 3.0 0.0 48 118
+ 1.04392 4 0 ack 40 ------- 2 3.0 0.0 48 118
- 1.04392 4 0 ack 40 ------- 2 3.0 0.0 48 118
r 1.04592 4 0 ack 40 ------- 2 3.0 0.0 47 115
+ 1.04592 0 4 tcp 1040 ------- 2 0.0 3.0 67 122
- 1.04688 0 4 tcp 1040 ------- 2 0.0 3.0 54 91
r 1.04856 0 4 tcp 1040 ------- 2 0.0 3.0 52 87
+ 1.04856 4 3 tcp 1040 ------- 2 0.0 3.0 52 87
- 1.04856 4 3 tcp 1040 ------- 2 0.0 3.0 52 87
+ 1.05 1 4 cbr 210 ------- 1 1.0 2.0 5 123
- 1.05 1 4 cbr 210 ------- 1 1.0 2.0 5 123
r 1.05024 4 3 tcp 1040 ------- 2 0.0 3.0 50 83
+ 1.05024 3 4 ack 40 ------- 2 3.0 0.0 50 124
- 1.05024 3 4 ack 40 ------- 2 3.0 0.0 50 124
r 1.05168 1 4 cbr 210 ------- 1 1.0 2.0 4 120