+ 0 0 1 tcp 40 ------- 0 0.0 4.0 0 0
- 0 0 1 tcp 40 ------- 0 0.0 4.0 0 0
r 0.01032 0 1 tcp 40 ------- 0 0.0 4.0 0 0
d 0.01032 1 2 tcp 40 ------- 0 0.0 4.0 0 0
+ 3 0 1 tcp 40 ---A--- 0 0.0 4.0 0 1
- 3 0 1 tcp 40 ---A--- 0 0.0 4.0 0 1
r 3.01032 0 1 tcp 40 ---A--- 0 0.0 4.0 0 1
d 3.01032 1 2 tcp 40 ---A--- 0 0.0 4.0 0 1
+ 9 0 1 tcp 40 ---A--- 0 0.0 4.0 0 2
- 9 0 1 tcp 40 ---A--- 0 0.0 4.0 0 2
r 9.01032 0 1 tcp 40 ---A--- 0 0.0 4.0 0 2
+ 9.01032 1 2 tcp 40 ---A--- 0 0.0 4.0 0 2
- 9.01032 1 2 tcp 40 ---A--- 0 0.0 4.0 0 2
r 9.02064 1 2 tcp 40 ---A--- 0 0.0 4.0 0 2
h 9.02064 2 5 tcp 40 ---A--- 0 0.0 4.0 0 2
+ 9.02164 2 5 tcp 40 ---A--- 0 0.0 4.0 0 2
- 9.02164 2 5 tcp 40 ---A--- 0 0.0 4.0 0 2
r 9.022649 5 4 tcp 40 ---A--- 0 0.0 4.0 0 2
h 9.022649 4 5 ack 40 ------- 0 4.0 0.0 0 3
+ 9.023649 4 5 ack 40 ------- 0 4.0 0.0 0 3
- 9.023649 4 5 ack 40 ------- 0 4.0 0.0 0 3
r 9.024658 5 2 ack 40 ------- 0 4.0 0.0 0 3
+ 9.024658 2 1 ack 40 ------- 0 4.0 0.0 0 3
- 9.024658 2 1 ack 40 ------- 0 4.0 0.0 0 3
r 9.034978 2 1 ack 40 ------- 0 4.0 0.0 0 3
+ 9.034978 1 0 ack 40 ------- 0 4.0 0.0 0 3
- 9.034978 1 0 ack 40 ------- 0 4.0 0.0 0 3
r 9.045298 1 0 ack 40 ------- 0 4.0 0.0 0 3
+ 9.045298 0 1 tcp 1500 ------- 0 0.0 4.0 1 4
- 9.045298 0 1 tcp 1500 ------- 0 0.0 4.0 1 4
r 9.067298 0 1 tcp 1500 ------- 0 0.0 4.0 1 4
+ 9.067298 1 2 tcp 1500 ------- 0 0.0 4.0 1 4
- 9.067298 1 2 tcp 1500 ------- 0 0.0 4.0 1 4
r 9.089298 1 2 tcp 1500 ------- 0 0.0 4.0 1 4
h 9.089298 2 5 tcp 1500 ------- 0 0.0 4.0 1 4
+ 9.090298 2 5 tcp 1500 ------- 0 0.0 4.0 1 4
- 9.090298 2 5 tcp 1500 ------- 0 0.0 4.0 1 4
r 9.091423 5 4 tcp 1500 ------- 0 0.0 4.0 1 4
h 9.091423 4 5 ack 40 ------- 0 4.0 0.0 1 5
+ 9.092423 4 5 ack 40 ------- 0 4.0 0.0 1 5
- 9.092423 4 5 ack 40 ------- 0 4.0 0.0 1 5
r 9.093432 5 2 ack 40 ------- 0 4.0 0.0 1 5
+ 9.093432 2 1 ack 40 ------- 0 4.0 0.0 1 5
- 9.093432 2 1 ack 40 ------- 0 4.0 0.0 1 5
r 9.103752 2 1 ack 40 ------- 0 4.0 0.0 1 5
+ 9.103752 1 0 ack 40 ------- 0 4.0 0.0 1 5
- 9.103752 1 0 ack 40 ------- 0 4.0 0.0 1 5
r 9.114072 1 0 ack 40 ------- 0 4.0 0.0 1 5
+ 9.114072 0 1 tcp 1500 ------- 0 0.0 4.0 2 6
- 9.114072 0 1 tcp 1500 ------- 0 0.0 4.0 2 6
+ 9.114072 0 1 tcp 1500 ------- 0 0.0 4.0 3 7
- 9.126072 0 1 tcp 1500 ------- 0 0.0 4.0 3 7
r 9.136072 0 1 tcp 1500 ------- 0 0.0 4.0 2 6
+ 9.136072 1 2 tcp 1500 ------- 0 0.0 4.0 2 6
- 9.136072 1 2 tcp 1500 ------- 0 0.0 4.0 2 6
r 9.148072 0 1 tcp 1500 ------- 0 0.0 4.0 3 7
+ 9.148072 1 2 tcp 1500 ------- 0 0.0 4.0 3 7
- 9.148072 1 2 tcp 1500 ------- 0 0.0 4.0 3 7
r 9.158072 1 2 tcp 1500 ------- 0 0.0 4.0 2 6
h 9.158072 2 5 tcp 1500 ------- 0 0.0 4.0 2 6
+ 9.159072 2 5 tcp 1500 ------- 0 0.0 4.0 2 6
- 9.159072 2 5 tcp 1500 ------- 0 0.0 4.0 2 6
r 9.160198 5 4 tcp 1500 ------- 0 0.0 4.0 2 6
h 9.160198 4 5 ack 40 ------- 0 4.0 0.0 2 8
+ 9.161198 4 5 ack 40 ------- 0 4.0 0.0 2 8
- 9.161198 4 5 ack 40 ------- 0 4.0 0.0 2 8
r 9.162207 5 2 ack 40 ------- 0 4.0 0.0 2 8
+ 9.162207 2 1 ack 40 ------- 0 4.0 0.0 2 8
- 9.162207 2 1 ack 40 ------- 0 4.0 0.0 2 8
r 9.170072 1 2 tcp 1500 ------- 0 0.0 4.0 3 7
h 9.170072 2 5 tcp 1500 ------- 0 0.0 4.0 3 7
+ 9.171072 2 5 tcp 1500 ------- 0 0.0 4.0 3 7
- 9.171072 2 5 tcp 1500 ------- 0 0.0 4.0 3 7
r 9.172198 5 4 tcp 1500 ------- 0 0.0 4.0 3 7
h 9.172198 4 5 ack 40 ------- 0 4.0 0.0 3 9
r 9.172527 2 1 ack 40 ------- 0 4.0 0.0 2 8
+ 9.172527 1 0 ack 40 ------- 0 4.0 0.0 2 8
- 9.172527 1 0 ack 40 ------- 0 4.0 0.0 2 8
+ 9.173198 4 5 ack 40 ------- 0 4.0 0.0 3 9
- 9.173198 4 5 ack 40 ------- 0 4.0 0.0 3 9
r 9.174207 5 2 ack 40 ------- 0 4.0 0.0 3 9
+ 9.174207 2 1 ack 40 ------- 0 4.0 0.0 3 9
- 9.174207 2 1 ack 40 ------- 0 4.0 0.0 3 9
r 9.182847 1 0 ack 40 ------- 0 4.0 0.0 2 8
+ 9.182847 0 1 tcp 1500 ------- 0 0.0 4.0 4 10
- 9.182847 0 1 tcp 1500 ------- 0 0.0 4.0 4 10
r 9.184527 2 1 ack 40 ------- 0 4.0 0.0 3 9
+ 9.184527 1 0 ack 40 ------- 0 4.0 0.0 3 9
- 9.184527 1 0 ack 40 ------- 0 4.0 0.0 3 9
r 9.194847 1 0 ack 40 ------- 0 4.0 0.0 3 9
+ 9.194847 0 1 tcp 1500 ------- 0 0.0 4.0 5 11
- 9.194847 0 1 tcp 1500 ------- 0 0.0 4.0 5 11
r 9.204847 0 1 tcp 1500 ------- 0 0.0 4.0 4 10
+ 9.204847 1 2 tcp 1500 ------- 0 0.0 4.0 4 10
- 9.204847 1 2 tcp 1500 ------- 0 0.0 4.0 4 10
r 9.216847 0 1 tcp 1500 ------- 0 0.0 4.0 5 11
+ 9.216847 1 2 tcp 1500 ------- 0 0.0 4.0 5 11
- 9.216847 1 2 tcp 1500 ------- 0 0.0 4.0 5 11
r 9.226847 1 2 tcp 1500 ------- 0 0.0 4.0 4 10
h 9.226847 2 5 tcp 1500 ------- 0 0.0 4.0 4 10
+ 9.227847 2 5 tcp 1500 ------- 0 0.0 4.0 4 10
- 9.227847 2 5 tcp 1500 ------- 0 0.0 4.0 4 10
r 9.228972 5 4 tcp 1500 ------- 0 0.0 4.0 4 10
h 9.228972 4 5 ack 40 ------- 0 4.0 0.0 4 12
+ 9.229972 4 5 ack 40 ------- 0 4.0 0.0 4 12
- 9.229972 4 5 ack 40 ------- 0 4.0 0.0 4 12
r 9.230981 5 2 ack 40 ------- 0 4.0 0.0 4 12
+ 9.230981 2 1 ack 40 ------- 0 4.0 0.0 4 12
- 9.230981 2 1 ack 40 ------- 0 4.0 0.0 4 12
r 9.238847 1 2 tcp 1500 ------- 0 0.0 4.0 5 11
h 9.238847 2 5 tcp 1500 ------- 0 0.0 4.0 5 11
+ 9.239847 2 5 tcp 1500 ------- 0 0.0 4.0 5 11
- 9.239847 2 5 tcp 1500 ------- 0 0.0 4.0 5 11
r 9.240972 5 4 tcp 1500 ------- 0 0.0 4.0 5 11
h 9.240972 4 5 ack 40 ------- 0 4.0 0.0 5 13
r 9.241301 2 1 ack 40 ------- 0 4.0 0.0 4 12
+ 9.241301 1 0 ack 40 ------- 0 4.0 0.0 4 12
- 9.241301 1 0 ack 40 ------- 0 4.0 0.0 4 12
+ 9.241972 4 5 ack 40 ------- 0 4.0 0.0 5 13
- 9.241972 4 5 ack 40 ------- 0 4.0 0.0 5 13
r 9.242981 5 2 ack 40 ------- 0 4.0 0.0 5 13
+ 9.242981 2 1 ack 40 ------- 0 4.0 0.0 5 13
- 9.242981 2 1 ack 40 ------- 0 4.0 0.0 5 13
r 9.251621 1 0 ack 40 ------- 0 4.0 0.0 4 12
+ 9.251621 0 1 tcp 1500 ------- 0 0.0 4.0 6 14
- 9.251621 0 1 tcp 1500 ------- 0 0.0 4.0 6 14
+ 9.251621 0 1 tcp 1500 ------- 0 0.0 4.0 7 15
r 9.253301 2 1 ack 40 ------- 0 4.0 0.0 5 13
+ 9.253301 1 0 ack 40 ------- 0 4.0 0.0 5 13
- 9.253301 1 0 ack 40 ------- 0 4.0 0.0 5 13
- 9.263621 0 1 tcp 1500 ------- 0 0.0 4.0 7 15
r 9.263621 1 0 ack 40 ------- 0 4.0 0.0 5 13
+ 9.263621 0 1 tcp 1500 ------- 0 0.0 4.0 8 16
r 9.273621 0 1 tcp 1500 ------- 0 0.0 4.0 6 14
+ 9.273621 1 2 tcp 1500 ------- 0 0.0 4.0 6 14
- 9.273621 1 2 tcp 1500 ------- 0 0.0 4.0 6 14
- 9.275621 0 1 tcp 1500 ------- 0 0.0 4.0 8 16
r 9.285621 0 1 tcp 1500 ------- 0 0.0 4.0 7 15
+ 9.285621 1 2 tcp 1500 ------- 0 0.0 4.0 7 15
- 9.285621 1 2 tcp 1500 ------- 0 0.0 4.0 7 15
r 9.295621 1 2 tcp 1500 ------- 0 0.0 4.0 6 14
h 9.295621 2 5 tcp 1500 ------- 0 0.0 4.0 6 14
+ 9.296621 2 5 tcp 1500 ------- 0 0.0 4.0 6 14
- 9.296621 2 5 tcp 1500 ------- 0 0.0 4.0 6 14
r 9.297621 0 1 tcp 1500 ------- 0 0.0 4.0 8 16
d 9.297621 1 2 tcp 1500 ------- 0 0.0 4.0 8 16
r 9.297746 5 4 tcp 1500 ------- 0 0.0 4.0 6 14
h 9.297746 4 5 ack 40 ------- 0 4.0 0.0 6 17
+ 9.298746 4 5 ack 40 ------- 0 4.0 0.0 6 17
- 9.298746 4 5 ack 40 ------- 0 4.0 0.0 6 17
r 9.299755 5 2 ack 40 ------- 0 4.0 0.0 6 17
+ 9.299755 2 1 ack 40 ------- 0 4.0 0.0 6 17
- 9.299755 2 1 ack 40 ------- 0 4.0 0.0 6 17
r 9.307621 1 2 tcp 1500 ------- 0 0.0 4.0 7 15
h 9.307621 2 5 tcp 1500 ------- 0 0.0 4.0 7 15
+ 9.308621 2 5 tcp 1500 ------- 0 0.0 4.0 7 15
- 9.308621 2 5 tcp 1500 ------- 0 0.0 4.0 7 15
r 9.309746 5 4 tcp 1500 ------- 0 0.0 4.0 7 15
h 9.309746 4 5 ack 40 ------- 0 4.0 0.0 7 18
r 9.310075 2 1 ack 40 ------- 0 4.0 0.0 6 17
+ 9.310075 1 0 ack 40 ------- 0 4.0 0.0 6 17
- 9.310075 1 0 ack 40 ------- 0 4.0 0.0 6 17
+ 9.310746 4 5 ack 40 ------- 0 4.0 0.0 7 18
- 9.310746 4 5 ack 40 ------- 0 4.0 0.0 7 18
r 9.311755 5 2 ack 40 ------- 0 4.0 0.0 7 18
+ 9.311755 2 1 ack 40 ------- 0 4.0 0.0 7 18
- 9.311755 2 1 ack 40 ------- 0 4.0 0.0 7 18
r 9.320395 1 0 ack 40 ------- 0 4.0 0.0 6 17
+ 9.320395 0 1 tcp 1500 ------- 0 0.0 4.0 9 19
- 9.320395 0 1 tcp 1500 ------- 0 0.0 4.0 9 19
r 9.322075 2 1 ack 40 ------- 0 4.0 0.0 7 18
+ 9.322075 1 0 ack 40 ------- 0 4.0 0.0 7 18
- 9.322075 1 0 ack 40 ------- 0 4.0 0.0 7 18
r 9.332395 1 0 ack 40 ------- 0 4.0 0.0 7 18
+ 9.332395 0 1 tcp 1500 ------- 0 0.0 4.0 10 20
- 9.332395 0 1 tcp 1500 ------- 0 0.0 4.0 10 20
+ 9.332395 0 1 tcp 1500 ------- 0 0.0 4.0 11 21
r 9.342395 0 1 tcp 1500 ------- 0 0.0 4.0 9 19
d 9.342395 1 2 tcp 1500 ------- 0 0.0 4.0 9 19
- 9.344395 0 1 tcp 1500 ------- 0 0.0 4.0 11 21
r 9.354395 0 1 tcp 1500 ------- 0 0.0 4.0 10 20
+ 9.354395 1 2 tcp 1500 ------- 0 0.0 4.0 10 20
- 9.354395 1 2 tcp 1500 ------- 0 0.0 4.0 10 20
r 9.366395 0 1 tcp 1500 ------- 0 0.0 4.0 11 21
d 9.366395 1 2 tcp 1500 ------- 0 0.0 4.0 11 21
r 9.376395 1 2 tcp 1500 ------- 0 0.0 4.0 10 20
h 9.376395 2 5 tcp 1500 ------- 0 0.0 4.0 10 20
+ 9.377395 2 5 tcp 1500 ------- 0 0.0 4.0 10 20
- 9.377395 2 5 tcp 1500 ------- 0 0.0 4.0 10 20
r 9.37852 5 4 tcp 1500 ------- 0 0.0 4.0 10 20
h 9.37852 4 5 ack 40 ------- 0 4.0 0.0 7 22
+ 9.37952 4 5 ack 40 ------- 0 4.0 0.0 7 22
- 9.37952 4 5 ack 40 ------- 0 4.0 0.0 7 22
r 9.380529 5 2 ack 40 ------- 0 4.0 0.0 7 22
+ 9.380529 2 1 ack 40 ------- 0 4.0 0.0 7 22
- 9.380529 2 1 ack 40 ------- 0 4.0 0.0 7 22
r 9.390849 2 1 ack 40 ------- 0 4.0 0.0 7 22
+ 9.390849 1 0 ack 40 ------- 0 4.0 0.0 7 22
- 9.390849 1 0 ack 40 ------- 0 4.0 0.0 7 22
r 9.401169 1 0 ack 40 ------- 0 4.0 0.0 7 22
+ 9.401169 0 1 tcp 1500 ------- 0 0.0 4.0 12 23
- 9.401169 0 1 tcp 1500 ------- 0 0.0 4.0 12 23
r 9.423169 0 1 tcp 1500 ------- 0 0.0 4.0 12 23
+ 9.423169 1 2 tcp 1500 ------- 0 0.0 4.0 12 23
- 9.423169 1 2 tcp 1500 ------- 0 0.0 4.0 12 23
r 9.445169 1 2 tcp 1500 ------- 0 0.0 4.0 12 23
h 9.445169 2 5 tcp 1500 ------- 0 0.0 4.0 12 23
+ 9.446169 2 5 tcp 1500 ------- 0 0.0 4.0 12 23
- 9.446169 2 5 tcp 1500 ------- 0 0.0 4.0 12 23
r 9.447295 5 4 tcp 1500 ------- 0 0.0 4.0 12 23
h 9.447295 4 5 ack 40 ------- 0 4.0 0.0 7 24
+ 9.448295 4 5 ack 40 ------- 0 4.0 0.0 7 24
- 9.448295 4 5 ack 40 ------- 0 4.0 0.0 7 24
r 9.449304 5 2 ack 40 ------- 0 4.0 0.0 7 24
+ 9.449304 2 1 ack 40 ------- 0 4.0 0.0 7 24
- 9.449304 2 1 ack 40 ------- 0 4.0 0.0 7 24
r 9.459624 2 1 ack 40 ------- 0 4.0 0.0 7 24
+ 9.459624 1 0 ack 40 ------- 0 4.0 0.0 7 24
- 9.459624 1 0 ack 40 ------- 0 4.0 0.0 7 24
r 9.469944 1 0 ack 40 ------- 0 4.0 0.0 7 24
+ 9.469944 0 1 tcp 1500 ------- 0 0.0 4.0 13 25
- 9.469944 0 1 tcp 1500 ------- 0 0.0 4.0 13 25
r 9.491944 0 1 tcp 1500 ------- 0 0.0 4.0 13 25
+ 9.491944 1 2 tcp 1500 ------- 0 0.0 4.0 13 25
- 9.491944 1 2 tcp 1500 ------- 0 0.0 4.0 13 25
r 9.513944 1 2 tcp 1500 ------- 0 0.0 4.0 13 25
h 9.513944 2 5 tcp 1500 ------- 0 0.0 4.0 13 25
+ 9.514944 2 5 tcp 1500 ------- 0 0.0 4.0 13 25
- 9.514944 2 5 tcp 1500 ------- 0 0.0 4.0 13 25
r 9.516069 5 4 tcp 1500 ------- 0 0.0 4.0 13 25
h 9.516069 4 5 ack 40 ------- 0 4.0 0.0 7 26
+ 9.517069 4 5 ack 40 ------- 0 4.0 0.0 7 26
- 9.517069 4 5 ack 40 ------- 0 4.0 0.0 7 26
r 9.518078 5 2 ack 40 ------- 0 4.0 0.0 7 26
+ 9.518078 2 1 ack 40 ------- 0 4.0 0.0 7 26
- 9.518078 2 1 ack 40 ------- 0 4.0 0.0 7 26
r 9.528398 2 1 ack 40 ------- 0 4.0 0.0 7 26
+ 9.528398 1 0 ack 40 ------- 0 4.0 0.0 7 26
- 9.528398 1 0 ack 40 ------- 0 4.0 0.0 7 26
+ 9.532395 0 1 tcp 1500 ---A--- 0 0.0 4.0 8 27
- 9.532395 0 1 tcp 1500 ---A--- 0 0.0 4.0 8 27
r 9.538718 1 0 ack 40 ------- 0 4.0 0.0 7 26
r 9.554395 0 1 tcp 1500 ---A--- 0 0.0 4.0 8 27
d 9.554395 1 2 tcp 1500 ---A--- 0 0.0 4.0 8 27
+ 9.932395 0 1 tcp 1500 ---A--- 0 0.0 4.0 8 28
- 9.932395 0 1 tcp 1500 ---A--- 0 0.0 4.0 8 28
r 9.954395 0 1 tcp 1500 ---A--- 0 0.0 4.0 8 28
d 9.954395 1 2 tcp 1500 ---A--- 0 0.0 4.0 8 28
